 written on 16Jul2025 at 08:12:48 
10
847
    1    1    1    1    1    1    1    1    1    1    1    1    1    1    1
    1    1    1    1    1    1    1    1    1    1    1    1    1    1    1
    1    1    1    1    1    1    1    1    1    1    1    1    1    1    1
    1    1    1    1    1    1    1    1    1    1    1    1    1    1    1
    1    1    1    1    1    1    1    1    1    1    1    1    1    1    1
    1    1    1    1    1    1    1    1    1    1    1    1    1    1    1
    1    1    1    1    1    1    1    1    1    1    1    1    1    1    1
    1    1    1    1    1    1    1    1    1    1    1    1    1    1    1
    1    1    1    1    1    1    1    1    1    1    1    1    1    1    1
    1    1    1    1    1    1    1    1    1    1    1    1    1    1    1
    1    1    1    1    1    1    1    1    1    1    1    1    1    1    1
    1    1    1    1    1    1    1    1    1    1    1    1    1    1    1
    1    1    1    1    1    1    1    1    1    1    1    1    1    1    1
    1    1    1    1    1    1    1    1    1    1    1    1    1    1    1
    1    1    1    1    1    1    1    1    1    1    1    1    1    1    1
    1    1    1    1    1    1    1    1    1    1    1    1    1    1    1
    1    1    1    1    1    1    1    1    1    1    1    1    1    1    1
    1    1    1    1    1    1    1    1    1    1    1    1    1    1    1
    1    1    1    1    1    1    1    1    1    1    1    1    1    1    1
    1    1    1    1    1    1    1    1    1    1    1    1    1    1    1
    1    1    1    1    1    1    1    1    1    1    1    1    1    1    1
    1    1    1    1    1    1    1    1    1    1    1    1    1    1    1
    1    1    1    1    1    1    1    1    1    1    1    1    1    1    1
    1    1    1    1    1    1    1    1    1    1    1    1    1    1    1
    1    1    1    1    1    1    1    1    1    1    1    1    1    1    1
    1    1    1    1    1    1    1    1    1    1    1    1    1    1    1
    1    1    1    1    1    1    1    1    1    1    1    1    1    1    1
    1    1    1    1    1    1    1    1    1    1    1    1    1    1    1
    1    1    1    1    1    1    1    1    1    1    1    1    1    1    1
    1    1    1    1    1    1    1    1    1    1    1    1    1    1    1
    1    1    1    1    1    1    1    1    1    1    1    1    1    1    1
    1    1    1    1    1    1    1    1    1    1    1    1    1    1    1
    1    1    1    1    1    1    1    1    1    1    1    1    1    1    1
    1    1    1    1    1    1    1    1    1    1    1    1    1    1    1
    1    1    1    1    1    1    1    1    1    1    1    1    1    1    1
    1    1    1    1    1    1    1    1    1    1    1    1    1    1    1
    1    1    1    1    1    1    1    1    1    1    1    1    1    1    1
    1    1    1    1    1    1    1    1    1    1    1    1    1    1    1
    1    1    1    1    1    1    1    1    1    1    1    1    1    1    1
    1    1    1    1    1    1    1    1    1    1    1    1    1    1    1
    1    1    1    1    1    1    1    1    1    1    1    1    1    1    1
    1    1    1    1    1    1    1    1    1    1    1    1    1    1    1
    1    1    1    1    1    1    1    1    1    1    1    1    1    1    1
    1    1    1    1    1    1    1    1    1    1    1    1    1    1    1
    1    1    1    1    1    1    1    1    1    1    1    1    1    1    1
    1    1    1    1    1    1    1    1    1    1    1    1    1    1    1
    1    1    1    1    1    1    1    1    1    1    1    1    1    1    1
    1    1    1    1    1    1    1    1    1    1    1    1    1    1    1
    1    1    1    1    1    1    1    1    1    1    1    1    1    1    1
    1    1    1    1    1    1    1    1    1    1    1    1    1    1    1
    1    1    1    1    1    1    1    1    1    1    1    1    1    1    1
    1    1    1    1    1    1    1    1    1    1    1    1    1    1    1
    1    1    1    1    1    1    1    1    1    1    1    1    1    1    1
    1    1    1    1    1    1    1    1    1    1    1    1    1    1    1
    1    1    1    1    1    1    1    1    1    1    1    1    1    1    1
    1    1    1    1    1    1    1    1    1    1    1    1    1    1    1
    1    1    1    1    1    1    1
 -5  -5  -3   1   1  0.000329 -0.000000
 -5  -5  -3   1   2 -0.000022  0.000041
 -5  -5  -3   1   3 -0.000021 -0.000004
 -5  -5  -3   1   4 -0.000023  0.000002
 -5  -5  -3   1   5 -0.000244  0.000073
 -5  -5  -3   1   6  0.000121  0.000001
 -5  -5  -3   1   7  0.000083  0.000034
 -5  -5  -3   1   8  0.000088 -0.000010
 -5  -5  -3   1   9 -0.000025 -0.000004
 -5  -5  -3   1  10  0.000134  0.000008
 -5  -5  -3   2   1  0.000003 -0.000051
 -5  -5  -3   2   2  0.000413  0.000041
 -5  -5  -3   2   3  0.000078 -0.000023
 -5  -5  -3   2   4 -0.000116  0.000036
 -5  -5  -3   2   5  0.000041  0.000034
 -5  -5  -3   2   6 -0.000099 -0.000032
 -5  -5  -3   2   7  0.000634  0.000046
 -5  -5  -3   2   8 -0.000143 -0.000086
 -5  -5  -3   2   9  0.000153  0.000217
 -5  -5  -3   2  10 -0.000105 -0.000127
 -5  -5  -3   3   1  0.000017 -0.000013
 -5  -5  -3   3   2 -0.000089  0.000113
 -5  -5  -3   3   3 -0.000472 -0.000047
 -5  -5  -3   3   4  0.000056  0.000150
 -5  -5  -3   3   5  0.000321 -0.000010
 -5  -5  -3   3   6  0.000090 -0.000015
 -5  -5  -3   3   7  0.000045  0.000109
 -5  -5  -3   3   8 -0.000450  0.000033
 -5  -5  -3   3   9  0.000286  0.000034
 -5  -5  -3   3  10  0.000229 -0.000053
 -5  -5  -3   4   1 -0.000023  0.000032
 -5  -5  -3   4   2  0.000078 -0.000128
 -5  -5  -3   4   3  0.000262  0.000044
 -5  -5  -3   4   4  0.000422 -0.000111
 -5  -5  -3   4   5 -0.000110  0.000058
 -5  -5  -3   4   6 -0.000046  0.000027
 -5  -5  -3   4   7  0.000044  0.000141
 -5  -5  -3   4   8 -0.000019  0.000178
 -5  -5  -3   4   9 -0.000496  0.000003
 -5  -5  -3   4  10  0.000025  0.000091
 -5  -5  -3   5   1  0.000141  0.000030
 -5  -5  -3   5   2  0.000060 -0.000020
 -5  -5  -3   5   3 -0.000310  0.000119
 -5  -5  -3   5   4 -0.000225  0.000034
 -5  -5  -3   5   5  0.000177  0.000018
 -5  -5  -3   5   6 -0.000076  0.000042
 -5  -5  -3   5   7 -0.000017  0.000030
 -5  -5  -3   5   8 -0.000195  0.000149
 -5  -5  -3   5   9  0.000058  0.000056
 -5  -5  -3   5  10  0.000068  0.000049
 -5  -5  -3   6   1  0.000138  0.000004
 -5  -5  -3   6   2  0.000109  0.000046
 -5  -5  -3   6   3  0.000089 -0.000024
 -5  -5  -3   6   4  0.000109 -0.000023
 -5  -5  -3   6   5  0.000125 -0.000021
 -5  -5  -3   6   6  0.000331 -0.000008
 -5  -5  -3   6   7  0.000017  0.000042
 -5  -5  -3   6   8  0.000012  0.000003
 -5  -5  -3   6   9  0.000010 -0.000053
 -5  -5  -3   6  10 -0.000019 -0.000037
 -5  -5  -3   7   1 -0.000092 -0.000050
 -5  -5  -3   7   2  0.000608  0.000031
 -5  -5  -3   7   3 -0.000014 -0.000039
 -5  -5  -3   7   4  0.000220 -0.000103
 -5  -5  -3   7   5 -0.000137  0.000039
 -5  -5  -3   7   6 -0.000003 -0.000045
 -5  -5  -3   7   7  0.000425  0.000027
 -5  -5  -3   7   8 -0.000008 -0.000078
 -5  -5  -3   7   9  0.000046  0.000035
 -5  -5  -3   7  10  0.000022 -0.000165
 -5  -5  -3   8   1  0.000094 -0.000029
 -5  -5  -3   8   2  0.000102  0.000008
 -5  -5  -3   8   3 -0.000539 -0.000002
 -5  -5  -3   8   4 -0.000048  0.000158
 -5  -5  -3   8   5  0.000033  0.000059
 -5  -5  -3   8   6 -0.000010 -0.000011
 -5  -5  -3   8   7  0.000011 -0.000005
 -5  -5  -3   8   8 -0.000469 -0.000057
 -5  -5  -3   8   9  0.000054  0.000073
 -5  -5  -3   8  10  0.000269  0.000043
 -5  -5  -3   9   1 -0.000003  0.000068
 -5  -5  -3   9   2  0.000350 -0.000151
 -5  -5  -3   9   3  0.000091 -0.000055
 -5  -5  -3   9   4 -0.000666  0.000126
 -5  -5  -3   9   5 -0.000035  0.000030
 -5  -5  -3   9   6  0.000043  0.000019
 -5  -5  -3   9   7 -0.000138  0.000070
 -5  -5  -3   9   8 -0.000015  0.000158
 -5  -5  -3   9   9  0.000613  0.000116
 -5  -5  -3   9  10 -0.000098  0.000049
 -5  -5  -3  10   1 -0.000148  0.000042
 -5  -5  -3  10   2 -0.000280 -0.000033
 -5  -5  -3  10   3  0.000007  0.000048
 -5  -5  -3  10   4  0.000024 -0.000046
 -5  -5  -3  10   5  0.000124  0.000057
 -5  -5  -3  10   6  0.000123 -0.000065
 -5  -5  -3  10   7 -0.000067 -0.000015
 -5  -5  -3  10   8 -0.000158  0.000131
 -5  -5  -3  10   9 -0.000026  0.000069
 -5  -5  -3  10  10  0.000176  0.000021
 -5  -5  -2   1   1 -0.000754 -0.000022
 -5  -5  -2   1   2 -0.000372 -0.000019
 -5  -5  -2   1   3  0.000367 -0.000033
 -5  -5  -2   1   4 -0.000046  0.000005
 -5  -5  -2   1   5  0.000223 -0.000006
 -5  -5  -2   1   6  0.001061 -0.000017
 -5  -5  -2   1   7 -0.000191 -0.000013
 -5  -5  -2   1   8 -0.000401 -0.000043
 -5  -5  -2   1   9 -0.000057  0.000052
 -5  -5  -2   1  10  0.000165  0.000053
 -5  -5  -2   2   1  0.000392  0.000027
 -5  -5  -2   2   2  0.000584 -0.000143
 -5  -5  -2   2   3 -0.000403 -0.000092
 -5  -5  -2   2   4  0.000005  0.000186
 -5  -5  -2   2   5  0.000263  0.000030
 -5  -5  -2   2   6  0.000189  0.000002
 -5  -5  -2   2   7  0.000304 -0.000149
 -5  -5  -2   2   8  0.000084  0.000067
 -5  -5  -2   2   9 -0.000108  0.000235
 -5  -5  -2   2  10  0.000345 -0.000056
 -5  -5  -2   3   1  0.000389 -0.000024
 -5  -5  -2   3   2  0.000420  0.000002
 -5  -5  -2   3   3 -0.000758 -0.000072
 -5  -5  -2   3   4  0.000167  0.000249
 -5  -5  -2   3   5 -0.000126  0.000179
 -5  -5  -2   3   6 -0.000398 -0.000036
 -5  -5  -2   3   7 -0.000021 -0.000011
 -5  -5  -2   3   8 -0.000010 -0.000065
 -5  -5  -2   3   9 -0.000331  0.000281
 -5  -5  -2   3  10 -0.000197  0.000016
 -5  -5  -2   4   1  0.000137  0.000016
 -5  -5  -2   4   2  0.000277 -0.000288
 -5  -5  -2   4   3 -0.000229 -0.000460
 -5  -5  -2   4   4 -0.000466 -0.000096
 -5  -5  -2   4   5 -0.000158 -0.000135
 -5  -5  -2   4   6  0.000083 -0.000042
 -5  -5  -2   4   7  0.000021  0.000028
 -5  -5  -2   4   8  0.000368 -0.000304
 -5  -5  -2   4   9  0.000045 -0.000044
 -5  -5  -2   4  10 -0.000022  0.000067
 -5  -5  -2   5   1 -0.000081  0.000065
 -5  -5  -2   5   2  0.000152 -0.000106
 -5  -5  -2   5   3  0.000039 -0.000048
 -5  -5  -2   5   4 -0.000179 -0.000121
 -5  -5  -2   5   5 -0.000229  0.000151
 -5  -5  -2   5   6 -0.000281  0.000003
 -5  -5  -2   5   7  0.000061 -0.000097
 -5  -5  -2   5   8  0.000186  0.000011
 -5  -5  -2   5   9 -0.000170  0.000076
 -5  -5  -2   5  10 -0.000036 -0.000112
 -5  -5  -2   6   1  0.001068 -0.000022
 -5  -5  -2   6   2 -0.000184 -0.000012
 -5  -5  -2   6   3 -0.000407 -0.000037
 -5  -5  -2   6   4 -0.000157  0.000021
 -5  -5  -2   6   5  0.000200  0.000021
 -5  -5  -2   6   6 -0.000734 -0.000019
 -5  -5  -2   6   7 -0.000384 -0.000025
 -5  -5  -2   6   8  0.000372 -0.000040
 -5  -5  -2   6   9 -0.000057 -0.000020
 -5  -5  -2   6  10  0.000039 -0.000008
 -5  -5  -2   7   1  0.000187  0.000020
 -5  -5  -2   7   2  0.000286 -0.000122
 -5  -5  -2   7   3 -0.000033 -0.000065
 -5  -5  -2   7   4  0.000073  0.000031
 -5  -5  -2   7   5  0.000122  0.000069
 -5  -5  -2   7   6  0.000375  0.000010
 -5  -5  -2   7   7  0.000608 -0.000128
 -5  -5  -2   7   8 -0.000370  0.000055
 -5  -5  -2   7   9  0.000180  0.000039
 -5  -5  -2   7  10  0.000378 -0.000010
 -5  -5  -2   8   1 -0.000405 -0.000026
 -5  -5  -2   8   2 -0.000018  0.000008
 -5  -5  -2   8   3 -0.000052 -0.000029
 -5  -5  -2   8   4 -0.000211  0.000131
 -5  -5  -2   8   5 -0.000034  0.000160
 -5  -5  -2   8   6  0.000363 -0.000014
 -5  -5  -2   8   7  0.000369  0.000029
 -5  -5  -2   8   8 -0.000754 -0.000073
 -5  -5  -2   8   9  0.000078  0.000264
 -5  -5  -2   8  10 -0.000131  0.000070
 -5  -5  -2   9   1  0.000111  0.000021
 -5  -5  -2   9   2 -0.000074 -0.000250
 -5  -5  -2   9   3  0.000093 -0.000398
 -5  -5  -2   9   4  0.000029 -0.000061
 -5  -5  -2   9   5 -0.000209  0.000162
 -5  -5  -2   9   6 -0.000009  0.000004
 -5  -5  -2   9   7 -0.000060  0.000035
 -5  -5  -2   9   8 -0.000258 -0.000431
 -5  -5  -2   9   9 -0.000197  0.000241
 -5  -5  -2   9  10 -0.000169 -0.000043
 -5  -5  -2  10   1 -0.000132 -0.000019
 -5  -5  -2  10   2  0.000374  0.000029
 -5  -5  -2  10   3 -0.000076 -0.000109
 -5  -5  -2  10   4 -0.000108  0.000259
 -5  -5  -2  10   5 -0.000008 -0.000124
 -5  -5  -2  10   6 -0.000176 -0.000053
 -5  -5  -2  10   7  0.000454 -0.000040
 -5  -5  -2  10   8  0.000049 -0.000054
 -5  -5  -2  10   9 -0.000137 -0.000056
 -5  -5  -2  10  10 -0.000248  0.000161
 -5  -5  -1   1   1  0.001678  0.000009
 -5  -5  -1   1   2 -0.000058 -0.000041
 -5  -5  -1   1   3  0.000328  0.000024
 -5  -5  -1   1   4  0.000075  0.000002
 -5  -5  -1   1   5  0.000193 -0.000058
 -5  -5  -1   1   6 -0.000892  0.000006
 -5  -5  -1   1   7 -0.000498 -0.000025
 -5  -5  -1   1   8 -0.000264  0.000034
 -5  -5  -1   1   9  0.000151 -0.000042
 -5  -5  -1   1  10 -0.000026 -0.000042
 -5  -5  -1   2   1  0.000071  0.000041
 -5  -5  -1   2   2 -0.000341  0.000062
 -5  -5  -1   2   3 -0.000069  0.000045
 -5  -5  -1   2   4 -0.000157  0.000131
 -5  -5  -1   2   5 -0.000015 -0.000039
 -5  -5  -1   2   6  0.000522  0.000034
 -5  -5  -1   2   7 -0.000620  0.000060
 -5  -5  -1   2   8 -0.000119  0.000050
 -5  -5  -1   2   9 -0.000190 -0.000053
 -5  -5  -1   2  10  0.000169  0.000138
 -5  -5  -1   3   1  0.000275  0.000032
 -5  -5  -1   3   2  0.000062 -0.000041
 -5  -5  -1   3   3  0.000707  0.000039
 -5  -5  -1   3   4  0.000218  0.000167
 -5  -5  -1   3   5  0.000494 -0.000069
 -5  -5  -1   3   6 -0.000265  0.000038
 -5  -5  -1   3   7  0.000060 -0.000033
 -5  -5  -1   3   8  0.000129  0.000073
 -5  -5  -1   3   9  0.000144  0.000179
 -5  -5  -1   3  10 -0.000452  0.000043
 -5  -5  -1   4   1 -0.000048 -0.000033
 -5  -5  -1   4   2  0.000023  0.000111
 -5  -5  -1   4   3 -0.000195  0.000062
 -5  -5  -1   4   4 -0.000451  0.000130
 -5  -5  -1   4   5 -0.000852  0.000035
 -5  -5  -1   4   6 -0.000059 -0.000008
 -5  -5  -1   4   7 -0.000019 -0.000004
 -5  -5  -1   4   8 -0.000309 -0.000253
 -5  -5  -1   4   9  0.000161 -0.000118
 -5  -5  -1   4  10  0.000017 -0.000122
 -5  -5  -1   5   1 -0.000148 -0.000070
 -5  -5  -1   5   2  0.000014  0.000056
 -5  -5  -1   5   3 -0.000464 -0.000072
 -5  -5  -1   5   4 -0.000723  0.000042
 -5  -5  -1   5   5 -0.000162 -0.000079
 -5  -5  -1   5   6  0.000019 -0.000060
 -5  -5  -1   5   7  0.000204  0.000035
 -5  -5  -1   5   8  0.000397 -0.000125
 -5  -5  -1   5   9  0.000141 -0.000072
 -5  -5  -1   5  10 -0.000228  0.000001
 -5  -5  -1   6   1 -0.000912  0.000004
 -5  -5  -1   6   2 -0.000522 -0.000047
 -5  -5  -1   6   3 -0.000257  0.000047
 -5  -5  -1   6   4  0.000044  0.000051
 -5  -5  -1   6   5 -0.000032  0.000020
 -5  -5  -1   6   6  0.001667  0.000015
 -5  -5  -1   6   7 -0.000093 -0.000027
 -5  -5  -1   6   8  0.000288  0.000019
 -5  -5  -1   6   9  0.000043  0.000069
 -5  -5  -1   6  10  0.000047  0.000033
 -5  -5  -1   7   1  0.000514  0.000037
 -5  -5  -1   7   2 -0.000549  0.000066
 -5  -5  -1   7   3 -0.000047  0.000082
 -5  -5  -1   7   4 -0.000099  0.000450
 -5  -5  -1   7   5  0.000300 -0.000068
 -5  -5  -1   7   6  0.000082  0.000040
 -5  -5  -1   7   7 -0.000352  0.000086
 -5  -5  -1   7   8 -0.000096  0.000056
 -5  -5  -1   7   9 -0.000170  0.000264
 -5  -5  -1   7  10 -0.000051  0.000177
 -5  -5  -1   8   1 -0.000270  0.000046
 -5  -5  -1   8   2  0.000093 -0.000102
 -5  -5  -1   8   3  0.000213  0.000075
 -5  -5  -1   8   4  0.000585 -0.000364
 -5  -5  -1   8   5 -0.000317 -0.000141
 -5  -5  -1   8   6  0.000312  0.000022
 -5  -5  -1   8   7  0.000137 -0.000078
 -5  -5  -1   8   8  0.000737  0.000067
 -5  -5  -1   8   9  0.000392 -0.000220
 -5  -5  -1   8  10  0.000540 -0.000057
 -5  -5  -1   9   1 -0.000124 -0.000060
 -5  -5  -1   9   2  0.000105  0.000095
 -5  -5  -1   9   3 -0.000216  0.000159
 -5  -5  -1   9   4 -0.000425 -0.000064
 -5  -5  -1   9   5  0.000203 -0.000050
 -5  -5  -1   9   6 -0.000048 -0.000010
 -5  -5  -1   9   7 -0.000005  0.000040
 -5  -5  -1   9   8 -0.000081 -0.000141
 -5  -5  -1   9   9 -0.000537 -0.000233
 -5  -5  -1   9  10 -0.000895 -0.000062
 -5  -5  -1  10   1  0.000022 -0.000031
 -5  -5  -1  10   2  0.000328  0.000036
 -5  -5  -1  10   3  0.000330 -0.000014
 -5  -5  -1  10   4  0.000069 -0.000066
 -5  -5  -1  10   5 -0.000298 -0.000005
 -5  -5  -1  10   6 -0.000093  0.000097
 -5  -5  -1  10   7  0.000012  0.000016
 -5  -5  -1  10   8 -0.000602 -0.000124
 -5  -5  -1  10   9 -0.001028 -0.000044
 -5  -5  -1  10  10 -0.000157 -0.000095
 -5  -5   0   1   1  0.001068  0.000019
 -5  -5   0   1   2 -0.001255  0.000045
 -5  -5   0   1   3 -0.000003  0.000020
 -5  -5   0   1   4 -0.000012 -0.000006
 -5  -5   0   1   5 -0.000134  0.000025
 -5  -5   0   1   6  0.001001  0.000016
 -5  -5   0   1   7  0.001150  0.000018
 -5  -5   0   1   8  0.001222  0.000025
 -5  -5   0   1   9  0.000026 -0.000001
 -5  -5   0   1  10 -0.001185 -0.000031
 -5  -5   0   2   1  0.001229 -0.000052
 -5  -5   0   2   2 -0.004669  0.000141
 -5  -5   0   2   3  0.000009 -0.000045
 -5  -5   0   2   4  0.000178 -0.000426
 -5  -5   0   2   5  0.000016 -0.000008
 -5  -5   0   2   6 -0.001165 -0.000023
 -5  -5   0   2   7 -0.001598  0.000129
 -5  -5   0   2   8 -0.002344  0.000022
 -5  -5   0   2   9  0.002148 -0.000372
 -5  -5   0   2  10 -0.000798  0.000000
 -5  -5   0   3   1  0.000004  0.000009
 -5  -5   0   3   2 -0.000039  0.000054
 -5  -5   0   3   3 -0.002697  0.000036
 -5  -5   0   3   4 -0.003386 -0.000125
 -5  -5   0   3   5 -0.001169 -0.000131
 -5  -5   0   3   6  0.001221  0.000018
 -5  -5   0   3   7  0.002346  0.000047
 -5  -5   0   3   8  0.002112  0.000041
 -5  -5   0   3   9  0.001868 -0.000214
 -5  -5   0   3  10  0.000570 -0.000052
 -5  -5   0   4   1 -0.000105 -0.000002
 -5  -5   0   4   2  0.000066  0.000254
 -5  -5   0   4   3  0.003558  0.000154
 -5  -5   0   4   4 -0.001915 -0.000082
 -5  -5   0   4   5  0.000793  0.000087
 -5  -5   0   4   6 -0.000111  0.000062
 -5  -5   0   4   7  0.001894 -0.000356
 -5  -5   0   4   8 -0.001780 -0.000206
 -5  -5   0   4   9  0.000735  0.000173
 -5  -5   0   4  10  0.000063 -0.000010
 -5  -5   0   5   1 -0.000032 -0.000028
 -5  -5   0   5   2  0.000117  0.000057
 -5  -5   0   5   3  0.001249  0.000065
 -5  -5   0   5   4  0.000775  0.000018
 -5  -5   0   5   5  0.000823 -0.000125
 -5  -5   0   5   6  0.001305  0.000032
 -5  -5   0   5   7 -0.000533  0.000074
 -5  -5   0   5   8 -0.000535 -0.000002
 -5  -5   0   5   9  0.000142 -0.000107
 -5  -5   0   5  10 -0.000652  0.000109
 -5  -5   0   6   1  0.001003  0.000021
 -5  -5   0   6   2  0.001148  0.000038
 -5  -5   0   6   3  0.001218  0.000014
 -5  -5   0   6   4  0.000167 -0.000080
 -5  -5   0   6   5 -0.001224 -0.000035
 -5  -5   0   6   6  0.001053  0.000013
 -5  -5   0   6   7 -0.001224  0.000030
 -5  -5   0   6   8  0.000014  0.000027
 -5  -5   0   6   9  0.000017 -0.000019
 -5  -5   0   6  10  0.000122 -0.000006
 -5  -5   0   7   1 -0.001157 -0.000034
 -5  -5   0   7   2 -0.001598  0.000108
 -5  -5   0   7   3 -0.002318 -0.000054
 -5  -5   0   7   4  0.001849  0.000267
 -5  -5   0   7   5 -0.000630 -0.000053
 -5  -5   0   7   6  0.001243 -0.000020
 -5  -5   0   7   7 -0.004669  0.000120
 -5  -5   0   7   8  0.000102  0.000038
 -5  -5   0   7   9 -0.000007  0.000296
 -5  -5   0   7  10 -0.000088 -0.000063
 -5  -5   0   8   1  0.001232  0.000007
 -5  -5   0   8   2  0.002309 -0.000039
 -5  -5   0   8   3  0.002112  0.000012
 -5  -5   0   8   4  0.001456  0.000182
 -5  -5   0   8   5  0.000321 -0.000070
 -5  -5   0   8   6  0.000014  0.000005
 -5  -5   0   8   7  0.000013 -0.000018
 -5  -5   0   8   8 -0.002740  0.000014
 -5  -5   0   8   9 -0.003385  0.000077
 -5  -5   0   8  10 -0.001171 -0.000072
 -5  -5   0   9   1 -0.000109 -0.000007
 -5  -5   0   9   2  0.002166  0.000222
 -5  -5   0   9   3 -0.001515  0.000106
 -5  -5   0   9   4  0.000675  0.000012
 -5  -5   0   9   5  0.000145 -0.000177
 -5  -5   0   9   6  0.000049 -0.000003
 -5  -5   0   9   7  0.000229 -0.000380
 -5  -5   0   9   8  0.003586 -0.000131
 -5  -5   0   9   9 -0.001784 -0.000025
 -5  -5   0   9  10  0.000842  0.000080
 -5  -5   0  10   1  0.001164  0.000030
 -5  -5   0  10   2 -0.000896 -0.000035
 -5  -5   0  10   3 -0.000250  0.000110
 -5  -5   0  10   4  0.000088 -0.000118
 -5  -5   0  10   5 -0.000649  0.000125
 -5  -5   0  10   6  0.000046  0.000005
 -5  -5   0  10   7 -0.000185  0.000043
 -5  -5   0  10   8  0.001286  0.000137
 -5  -5   0  10   9  0.000849  0.000158
 -5  -5   0  10  10  0.000843 -0.000111
 -5  -5   1   1   1  0.001679 -0.000017
 -5  -5   1   1   2 -0.000040  0.000013
 -5  -5   1   1   3 -0.000322 -0.000037
 -5  -5   1   1   4 -0.000059  0.000015
 -5  -5   1   1   5 -0.000131  0.000049
 -5  -5   1   1   6 -0.000614 -0.000011
 -5  -5   1   1   7 -0.000027  0.000022
 -5  -5   1   1   8  0.000153 -0.000045
 -5  -5   1   1   9  0.000159  0.000024
 -5  -5   1   1  10 -0.000078  0.000057
 -5  -5   1   2   1  0.000041 -0.000013
 -5  -5   1   2   2 -0.000226 -0.000116
 -5  -5   1   2   3  0.000058 -0.000071
 -5  -5   1   2   4 -0.000017 -0.000224
 -5  -5   1   2   5  0.000003  0.000059
 -5  -5   1   2   6  0.000021 -0.000019
 -5  -5   1   2   7  0.000060 -0.000128
 -5  -5   1   2   8 -0.000007 -0.000015
 -5  -5   1   2   9  0.000103 -0.000049
 -5  -5   1   2  10  0.000718 -0.000154
 -5  -5   1   3   1 -0.000282 -0.000034
 -5  -5   1   3   2 -0.000053  0.000080
 -5  -5   1   3   3  0.000736 -0.000028
 -5  -5   1   3   4  0.000225 -0.000103
 -5  -5   1   3   5  0.000708  0.000113
 -5  -5   1   3   6  0.000154 -0.000047
 -5  -5   1   3   7  0.000054  0.000038
 -5  -5   1   3   8 -0.000237 -0.000065
 -5  -5   1   3   9  0.000335 -0.000141
 -5  -5   1   3  10 -0.000509 -0.000022
 -5  -5   1   4   1  0.000111  0.000035
 -5  -5   1   4   2  0.000017 -0.000022
 -5  -5   1   4   3 -0.000232 -0.000121
 -5  -5   1   4   4 -0.000328  0.000009
 -5  -5   1   4   5 -0.000743  0.000013
 -5  -5   1   4   6 -0.000193 -0.000041
 -5  -5   1   4   7  0.000133 -0.000323
 -5  -5   1   4   8 -0.000099  0.000356
 -5  -5   1   4   9 -0.000439  0.000047
 -5  -5   1   4  10  0.000002  0.000068
 -5  -5   1   5   1  0.000165  0.000080
 -5  -5   1   5   2 -0.000078 -0.000097
 -5  -5   1   5   3 -0.000768  0.000062
 -5  -5   1   5   4 -0.000833  0.000012
 -5  -5   1   5   5 -0.000278  0.000143
 -5  -5   1   5   6  0.000028  0.000041
 -5  -5   1   5   7  0.000561 -0.000066
 -5  -5   1   5   8  0.000517  0.000146
 -5  -5   1   5   9 -0.000037  0.000176
 -5  -5   1   5  10 -0.001161 -0.000047
 -5  -5   1   6   1 -0.000595 -0.000013
 -5  -5   1   6   2 -0.000003  0.000024
 -5  -5   1   6   3  0.000152 -0.000056
 -5  -5   1   6   4  0.000198  0.000030
 -5  -5   1   6   5 -0.000049 -0.000003
 -5  -5   1   6   6  0.001698 -0.000021
 -5  -5   1   6   7 -0.000019  0.000019
 -5  -5   1   6   8 -0.000294 -0.000034
 -5  -5   1   6   9 -0.000040 -0.000051
 -5  -5   1   6  10 -0.000106 -0.000029
 -5  -5   1   7   1  0.000023 -0.000028
 -5  -5   1   7   2 -0.000004 -0.000122
 -5  -5   1   7   3 -0.000047 -0.000087
 -5  -5   1   7   4  0.000145 -0.000116
 -5  -5   1   7   5  0.000510  0.000087
 -5  -5   1   7   6  0.000022 -0.000038
 -5  -5   1   7   7 -0.000188 -0.000128
 -5  -5   1   7   8  0.000120 -0.000015
 -5  -5   1   7   9  0.000057  0.000083
 -5  -5   1   7  10  0.000087 -0.000140
 -5  -5   1   8   1  0.000151 -0.000049
 -5  -5   1   8   2 -0.000009  0.000065
 -5  -5   1   8   3 -0.000324 -0.000048
 -5  -5   1   8   4  0.000375  0.000186
 -5  -5   1   8   5 -0.000525  0.000152
 -5  -5   1   8   6 -0.000323 -0.000024
 -5  -5   1   8   7 -0.000071  0.000057
 -5  -5   1   8   8  0.000780 -0.000045
 -5  -5   1   8   9  0.000304  0.000107
 -5  -5   1   8  10  0.000660  0.000099
 -5  -5   1   9   1 -0.000127  0.000096
 -5  -5   1   9   2 -0.000043 -0.000040
 -5  -5   1   9   3 -0.000500 -0.000162
 -5  -5   1   9   4  0.000151 -0.000013
 -5  -5   1   9   5 -0.000124  0.000232
 -5  -5   1   9   6  0.000042  0.000024
 -5  -5   1   9   7 -0.000170 -0.000328
 -5  -5   1   9   8 -0.000207  0.000221
 -5  -5   1   9   9 -0.000783  0.000065
 -5  -5   1   9  10 -0.000830 -0.000055
 -5  -5   1  10   1  0.000084  0.000018
 -5  -5   1  10   2  0.000605 -0.000004
 -5  -5   1  10   3  0.000473 -0.000040
 -5  -5   1  10   4 -0.000069  0.000047
 -5  -5   1  10   5 -0.001095 -0.000052
 -5  -5   1  10   6  0.000071 -0.000096
 -5  -5   1  10   7  0.000064 -0.000044
 -5  -5   1  10   8 -0.000633  0.000048
 -5  -5   1  10   9 -0.000697 -0.000084
 -5  -5   1  10  10 -0.000299  0.000137
 -5  -5   2   1   1 -0.000752 -0.000013
 -5  -5   2   1   2 -0.000379 -0.000045
 -5  -5   2   1   3 -0.000365  0.000000
 -5  -5   2   1   4  0.000042 -0.000006
 -5  -5   2   1   5  0.000012 -0.000044
 -5  -5   2   1   6  0.001341 -0.000011
 -5  -5   2   1   7 -0.000254 -0.000033
 -5  -5   2   1   8 -0.000440 -0.000001
 -5  -5   2   1   9  0.000000 -0.000001
 -5  -5   2   1  10  0.000011 -0.000003
 -5  -5   2   2   1  0.000406  0.000052
 -5  -5   2   2   2  0.000541 -0.000081
 -5  -5   2   2   3  0.000381  0.000051
 -5  -5   2   2   4  0.000373  0.000342
 -5  -5   2   2   5 -0.000293  0.000005
 -5  -5   2   2   6  0.000266  0.000028
 -5  -5   2   2   7  0.000228 -0.000109
 -5  -5   2   2   8  0.000471  0.000047
 -5  -5   2   2   9  0.000030  0.000143
 -5  -5   2   2  10  0.000211  0.000062
 -5  -5   2   3   1 -0.000388  0.000013
 -5  -5   2   3   2 -0.000355  0.000047
 -5  -5   2   3   3 -0.000762  0.000008
 -5  -5   2   3   4  0.000324  0.000377
 -5  -5   2   3   5 -0.000229  0.000094
 -5  -5   2   3   6 -0.000437  0.000008
 -5  -5   2   3   7 -0.000536  0.000016
 -5  -5   2   3   8 -0.000110 -0.000031
 -5  -5   2   3   9 -0.000311  0.000394
 -5  -5   2   3  10 -0.000152  0.000060
 -5  -5   2   4   1  0.000023 -0.000017
 -5  -5   2   4   2  0.000176 -0.000142
 -5  -5   2   4   3 -0.000433 -0.000327
 -5  -5   2   4   4 -0.000500  0.000250
 -5  -5   2   4   5 -0.000186 -0.000163
 -5  -5   2   4   6  0.000078 -0.000019
 -5  -5   2   4   7  0.000124 -0.000005
 -5  -5   2   4   8  0.000101 -0.000214
 -5  -5   2   4   9  0.000144 -0.000128
 -5  -5   2   4  10 -0.000106  0.000021
 -5  -5   2   5   1  0.000135 -0.000011
 -5  -5   2   5   2 -0.000356 -0.000016
 -5  -5   2   5   3  0.000163 -0.000114
 -5  -5   2   5   4 -0.000170 -0.000106
 -5  -5   2   5   5 -0.000178  0.000058
 -5  -5   2   5   6 -0.000104 -0.000056
 -5  -5   2   5   7  0.000015 -0.000041
 -5  -5   2   5   8  0.000103 -0.000100
 -5  -5   2   5   9 -0.000149 -0.000061
 -5  -5   2   5  10 -0.000247 -0.000092
 -5  -5   2   6   1  0.001332 -0.000016
 -5  -5   2   6   2 -0.000267 -0.000044
 -5  -5   2   6   3 -0.000441  0.000016
 -5  -5   2   6   4 -0.000170  0.000031
 -5  -5   2   6   5  0.000027  0.000038
 -5  -5   2   6   6 -0.000745 -0.000006
 -5  -5   2   6   7 -0.000417 -0.000044
 -5  -5   2   6   8 -0.000394 -0.000011
 -5  -5   2   6   9  0.000012  0.000024
 -5  -5   2   6  10 -0.000245  0.000012
 -5  -5   2   7   1  0.000259  0.000052
 -5  -5   2   7   2  0.000239 -0.000087
 -5  -5   2   7   3  0.000478  0.000066
 -5  -5   2   7   4 -0.000192  0.000065
 -5  -5   2   7   5  0.000134  0.000013
 -5  -5   2   7   6  0.000402  0.000046
 -5  -5   2   7   7  0.000539 -0.000075
 -5  -5   2   7   8  0.000290  0.000011
 -5  -5   2   7   9  0.000033 -0.000056
 -5  -5   2   7  10 -0.000225  0.000118
 -5  -5   2   8   1 -0.000446  0.000024
 -5  -5   2   8   2 -0.000413 -0.000113
 -5  -5   2   8   3 -0.000068  0.000002
 -5  -5   2   8   4 -0.000015  0.000257
 -5  -5   2   8   5  0.000073  0.000041
 -5  -5   2   8   6 -0.000380  0.000014
 -5  -5   2   8   7 -0.000295 -0.000095
 -5  -5   2   8   8 -0.000769  0.000016
 -5  -5   2   8   9  0.000302  0.000473
 -5  -5   2   8  10 -0.000184 -0.000000
 -5  -5   2   9   1  0.000036 -0.000068
 -5  -5   2   9   2 -0.000196 -0.000177
 -5  -5   2   9   3 -0.000014 -0.000249
 -5  -5   2   9   4  0.000147 -0.000121
 -5  -5   2   9   5 -0.000115 -0.000014
 -5  -5   2   9   6 -0.000089 -0.000016
 -5  -5   2   9   7  0.000255  0.000022
 -5  -5   2   9   8 -0.000347 -0.000231
 -5  -5   2   9   9 -0.000139 -0.000218
 -5  -5   2   9  10 -0.000205 -0.000006
 -5  -5   2  10   1  0.000015 -0.000037
 -5  -5   2  10   2  0.000354  0.000034
 -5  -5   2  10   3 -0.000160 -0.000080
 -5  -5   2  10   4 -0.000032  0.000172
 -5  -5   2  10   5 -0.000272 -0.000107
 -5  -5   2  10   6  0.000105  0.000041
 -5  -5   2  10   7 -0.000122 -0.000026
 -5  -5   2  10   8  0.000061 -0.000128
 -5  -5   2  10   9 -0.000256 -0.000050
 -5  -5   2  10  10 -0.000182  0.000061
 -5  -5   3   1   1  0.000322  0.000025
 -5  -5   3   1   2 -0.000040  0.000005
 -5  -5   3   1   3  0.000018  0.000027
 -5  -5   3   1   4  0.000034 -0.000009
 -5  -5   3   1   5  0.000083 -0.000039
 -5  -5   3   1   6  0.000258  0.000019
 -5  -5   3   1   7  0.000028 -0.000003
 -5  -5   3   1   8  0.000036  0.000040
 -5  -5   3   1   9 -0.000004 -0.000028
 -5  -5   3   1  10  0.000103 -0.000042
 -5  -5   3   2   1  0.000028 -0.000006
 -5  -5   3   2   2  0.000331  0.000121
 -5  -5   3   2   3 -0.000058 -0.000004
 -5  -5   3   2   4  0.000221  0.000093
 -5  -5   3   2   5 -0.000025 -0.000051
 -5  -5   3   2   6 -0.000019  0.000007
 -5  -5   3   2   7  0.000370  0.000119
 -5  -5   3   2   8  0.000040  0.000093
 -5  -5   3   2   9  0.000396 -0.000006
 -5  -5   3   2  10 -0.000485  0.000110
 -5  -5   3   3   1 -0.000018  0.000022
 -5  -5   3   3   2  0.000050 -0.000081
 -5  -5   3   3   3 -0.000485  0.000093
 -5  -5   3   3   4  0.000151 -0.000009
 -5  -5   3   3   5  0.000151 -0.000182
 -5  -5   3   3   6  0.000029  0.000038
 -5  -5   3   3   7  0.000060 -0.000061
 -5  -5   3   3   8 -0.000437  0.000044
 -5  -5   3   3   9  0.000395 -0.000001
 -5  -5   3   3  10  0.000153  0.000011
 -5  -5   3   4   1 -0.000078 -0.000034
 -5  -5   3   4   2 -0.000101 -0.000174
 -5  -5   3   4   3  0.000054 -0.000141
 -5  -5   3   4   4  0.000432  0.000030
 -5  -5   3   4   5 -0.000202  0.000144
 -5  -5   3   4   6  0.000019  0.000024
 -5  -5   3   4   7  0.000208 -0.000095
 -5  -5   3   4   8 -0.000330 -0.000149
 -5  -5   3   4   9 -0.000585  0.000021
 -5  -5   3   4  10  0.000077 -0.000129
 -5  -5   3   5   1 -0.000177 -0.000066
 -5  -5   3   5   2  0.000079  0.000099
 -5  -5   3   5   3 -0.000043 -0.000008
 -5  -5   3   5   4 -0.000118  0.000074
 -5  -5   3   5   5  0.000273 -0.000167
 -5  -5   3   5   6 -0.000014 -0.000004
 -5  -5   3   5   7 -0.000240  0.000080
 -5  -5   3   5   8 -0.000152 -0.000089
 -5  -5   3   5   9  0.000158 -0.000126
 -5  -5   3   5  10 -0.000256  0.000091
 -5  -5   3   6   1  0.000242  0.000023
 -5  -5   3   6   2  0.000008 -0.000005
 -5  -5   3   6   3  0.000039  0.000038
 -5  -5   3   6   4  0.000044 -0.000029
 -5  -5   3   6   5  0.000074 -0.000019
 -5  -5   3   6   6  0.000302  0.000025
 -5  -5   3   6   7 -0.000043  0.000004
 -5  -5   3   6   8  0.000003  0.000031
 -5  -5   3   6   9  0.000030  0.000038
 -5  -5   3   6  10  0.000165  0.000033
 -5  -5   3   7   1 -0.000020  0.000000
 -5  -5   3   7   2  0.000399  0.000111
 -5  -5   3   7   3 -0.000029 -0.000011
 -5  -5   3   7   4  0.000151 -0.000153
 -5  -5   3   7   5 -0.000245 -0.000110
 -5  -5   3   7   6  0.000048  0.000009
 -5  -5   3   7   7  0.000296  0.000122
 -5  -5   3   7   8  0.000069  0.000104
 -5  -5   3   7   9  0.000040 -0.000224
 -5  -5   3   7  10 -0.000132  0.000102
 -5  -5   3   8   1  0.000037  0.000034
 -5  -5   3   8   2 -0.000072 -0.000011
 -5  -5   3   8   3 -0.000350  0.000018
 -5  -5   3   8   4  0.000149 -0.000113
 -5  -5   3   8   5  0.000082 -0.000197
 -5  -5   3   8   6  0.000022  0.000012
 -5  -5   3   8   7 -0.000057 -0.000020
 -5  -5   3   8   8 -0.000504  0.000100
 -5  -5   3   8   9 -0.000091 -0.000160
 -5  -5   3   8  10  0.000173 -0.000086
 -5  -5   3   9   1 -0.000014 -0.000043
 -5  -5   3   9   2  0.000263 -0.000160
 -5  -5   3   9   3  0.000057 -0.000066
 -5  -5   3   9   4 -0.000347  0.000086
 -5  -5   3   9   5  0.000292 -0.000121
 -5  -5   3   9   6  0.000040 -0.000013
 -5  -5   3   9   7  0.000298 -0.000021
 -5  -5   3   9   8  0.000047 -0.000115
 -5  -5   3   9   9  0.000689 -0.000180
 -5  -5   3   9  10 -0.000209 -0.000000
 -5  -5   3  10   1 -0.000125 -0.000005
 -5  -5   3  10   2 -0.000433 -0.000003
 -5  -5   3  10   3  0.000000  0.000075
 -5  -5   3  10   4  0.000092 -0.000212
 -5  -5   3  10   5 -0.000314  0.000101
 -5  -5   3  10   6 -0.000070  0.000073
 -5  -5   3  10   7 -0.000168  0.000050
 -5  -5   3  10   8 -0.000143 -0.000010
 -5  -5   3  10   9 -0.000256  0.000047
 -5  -5   3  10  10  0.000289 -0.000169
 -5  -4  -3   1   1 -0.000318 -0.000017
 -5  -4  -3   1   2 -0.000089 -0.000024
 -5  -4  -3   1   3 -0.000202 -0.000019
 -5  -4  -3   1   4  0.000049 -0.000012
 -5  -4  -3   1   5  0.000013 -0.000005
 -5  -4  -3   1   6 -0.000729 -0.000019
 -5  -4  -3   1   7  0.000125 -0.000014
 -5  -4  -3   1   8  0.000054 -0.000013
 -5  -4  -3   1   9 -0.000000 -0.000003
 -5  -4  -3   1  10  0.000017 -0.000066
 -5  -4  -3   2   1  0.000038  0.000023
 -5  -4  -3   2   2 -0.000344 -0.000091
 -5  -4  -3   2   3 -0.000131  0.000071
 -5  -4  -3   2   4 -0.000292  0.000286
 -5  -4  -3   2   5  0.000376 -0.000021
 -5  -4  -3   2   6 -0.000121  0.000018
 -5  -4  -3   2   7 -0.000252 -0.000086
 -5  -4  -3   2   8  0.000056  0.000003
 -5  -4  -3   2   9 -0.000009  0.000162
 -5  -4  -3   2  10  0.000099  0.000140
 -5  -4  -3   3   1  0.000207  0.000009
 -5  -4  -3   3   2 -0.000152  0.000010
 -5  -4  -3   3   3  0.000354 -0.000015
 -5  -4  -3   3   4  0.000228  0.000042
 -5  -4  -3   3   5  0.000156 -0.000078
 -5  -4  -3   3   6  0.000052 -0.000002
 -5  -4  -3   3   7 -0.000162  0.000023
 -5  -4  -3   3   8  0.000167  0.000042
 -5  -4  -3   3   9  0.000273  0.000137
 -5  -4  -3   3  10 -0.000155 -0.000016
 -5  -4  -3   4   1  0.000067 -0.000069
 -5  -4  -3   4   2  0.000259 -0.000128
 -5  -4  -3   4   3  0.000055 -0.000224
 -5  -4  -3   4   4  0.000106 -0.000008
 -5  -4  -3   4   5 -0.000137 -0.000126
 -5  -4  -3   4   6  0.000104  0.000021
 -5  -4  -3   4   7 -0.000160  0.000083
 -5  -4  -3   4   8 -0.000311 -0.000152
 -5  -4  -3   4   9 -0.000593 -0.000272
 -5  -4  -3   4  10 -0.000029  0.000092
 -5  -4  -3   5   1 -0.000081 -0.000068
 -5  -4  -3   5   2  0.000301  0.000097
 -5  -4  -3   5   3  0.000054  0.000011
 -5  -4  -3   5   4 -0.000040 -0.000092
 -5  -4  -3   5   5  0.000021  0.000085
 -5  -4  -3   5   6 -0.000034 -0.000006
 -5  -4  -3   5   7  0.000233  0.000079
 -5  -4  -3   5   8  0.000094 -0.000087
 -5  -4  -3   5   9  0.000052 -0.000005
 -5  -4  -3   5  10 -0.000022 -0.000153
 -5  -4  -3   6   1 -0.000837 -0.000012
 -5  -4  -3   6   2 -0.000046 -0.000032
 -5  -4  -3   6   3 -0.000042  0.000017
 -5  -4  -3   6   4 -0.000002 -0.000003
 -5  -4  -3   6   5  0.000005  0.000032
 -5  -4  -3   6   6 -0.000334 -0.000006
 -5  -4  -3   6   7 -0.000041 -0.000022
 -5  -4  -3   6   8  0.000228  0.000001
 -5  -4  -3   6   9 -0.000063  0.000073
 -5  -4  -3   6  10 -0.000035 -0.000016
 -5  -4  -3   7   1  0.000044  0.000030
 -5  -4  -3   7   2 -0.000406 -0.000101
 -5  -4  -3   7   3 -0.000084  0.000097
 -5  -4  -3   7   4  0.000111  0.000041
 -5  -4  -3   7   5  0.000406 -0.000055
 -5  -4  -3   7   6  0.000092  0.000035
 -5  -4  -3   7   7 -0.000376 -0.000077
 -5  -4  -3   7   8  0.000045  0.000021
 -5  -4  -3   7   9  0.000157  0.000001
 -5  -4  -3   7  10  0.000142  0.000133
 -5  -4  -3   8   1 -0.000053  0.000014
 -5  -4  -3   8   2  0.000185 -0.000120
 -5  -4  -3   8   3  0.000312 -0.000010
 -5  -4  -3   8   4  0.000205 -0.000062
 -5  -4  -3   8   5  0.000187 -0.000090
 -5  -4  -3   8   6 -0.000212 -0.000016
 -5  -4  -3   8   7  0.000227 -0.000093
 -5  -4  -3   8   8  0.000352  0.000002
 -5  -4  -3   8   9  0.000164  0.000059
 -5  -4  -3   8  10  0.000006 -0.000099
 -5  -4  -3   9   1 -0.000084 -0.000072
 -5  -4  -3   9   2  0.000334 -0.000033
 -5  -4  -3   9   3  0.000050 -0.000009
 -5  -4  -3   9   4 -0.000277 -0.000108
 -5  -4  -3   9   5  0.000048  0.000006
 -5  -4  -3   9   6 -0.000059  0.000010
 -5  -4  -3   9   7 -0.000252  0.000200
 -5  -4  -3   9   8 -0.000141  0.000004
 -5  -4  -3   9   9  0.000502  0.000058
 -5  -4  -3   9  10 -0.000149 -0.000098
 -5  -4  -3  10   1  0.000044 -0.000035
 -5  -4  -3  10   2  0.000352 -0.000012
 -5  -4  -3  10   3 -0.000061  0.000051
 -5  -4  -3  10   4 -0.000117  0.000063
 -5  -4  -3  10   5 -0.000408 -0.000115
 -5  -4  -3  10   6  0.000102  0.000089
 -5  -4  -3  10   7  0.000349 -0.000028
 -5  -4  -3  10   8 -0.000111 -0.000064
 -5  -4  -3  10   9 -0.000288 -0.000111
 -5  -4  -3  10  10  0.000038  0.000068
 -5  -4  -2   1   1  0.000015  0.000027
 -5  -4  -2   1   2  0.000420 -0.000018
 -5  -4  -2   1   3  0.000150  0.000006
 -5  -4  -2   1   4 -0.000196  0.000035
 -5  -4  -2   1   5  0.000066  0.000024
 -5  -4  -2   1   6  0.000267  0.000010
 -5  -4  -2   1   7 -0.000144 -0.000039
 -5  -4  -2   1   8 -0.000202  0.000022
 -5  -4  -2   1   9 -0.000259  0.000014
 -5  -4  -2   1  10 -0.000193  0.000000
 -5  -4  -2   2   1 -0.000515  0.000029
 -5  -4  -2   2   2  0.000257  0.000157
 -5  -4  -2   2   3  0.000166 -0.000012
 -5  -4  -2   2   4  0.000258  0.000028
 -5  -4  -2   2   5 -0.000275 -0.000058
 -5  -4  -2   2   6  0.000135  0.000041
 -5  -4  -2   2   7  0.000354  0.000151
 -5  -4  -2   2   8  0.000247  0.000129
 -5  -4  -2   2   9 -0.000062  0.000086
 -5  -4  -2   2  10 -0.000333 -0.000014
 -5  -4  -2   3   1 -0.000096  0.000012
 -5  -4  -2   3   2  0.000085 -0.000085
 -5  -4  -2   3   3  0.000502  0.000031
 -5  -4  -2   3   4 -0.000241  0.000139
 -5  -4  -2   3   5 -0.000005 -0.000150
 -5  -4  -2   3   6 -0.000204  0.000009
 -5  -4  -2   3   7 -0.000182 -0.000073
 -5  -4  -2   3   8  0.000267  0.000068
 -5  -4  -2   3   9 -0.000495  0.000072
 -5  -4  -2   3  10 -0.000155 -0.000083
 -5  -4  -2   4   1 -0.000142 -0.000032
 -5  -4  -2   4   2  0.000155 -0.000404
 -5  -4  -2   4   3  0.000391 -0.000193
 -5  -4  -2   4   4 -0.000440 -0.000375
 -5  -4  -2   4   5  0.000258  0.000137
 -5  -4  -2   4   6  0.000205  0.000014
 -5  -4  -2   4   7  0.000071 -0.000006
 -5  -4  -2   4   8  0.000738 -0.000175
 -5  -4  -2   4   9  0.000787  0.000207
 -5  -4  -2   4  10 -0.000475 -0.000084
 -5  -4  -2   5   1  0.000119  0.000005
 -5  -4  -2   5   2 -0.000167  0.000076
 -5  -4  -2   5   3  0.000430  0.000066
 -5  -4  -2   5   4  0.000313 -0.000028
 -5  -4  -2   5   5  0.000151 -0.000158
 -5  -4  -2   5   6  0.000324  0.000026
 -5  -4  -2   5   7 -0.000319  0.000123
 -5  -4  -2   5   8  0.000211  0.000009
 -5  -4  -2   5   9 -0.000406 -0.000127
 -5  -4  -2   5  10  0.000432  0.000118
 -5  -4  -2   6   1  0.000037  0.000026
 -5  -4  -2   6   2  0.000018 -0.000025
 -5  -4  -2   6   3  0.000077  0.000013
 -5  -4  -2   6   4  0.000052 -0.000061
 -5  -4  -2   6   5 -0.000412 -0.000041
 -5  -4  -2   6   6 -0.000001  0.000013
 -5  -4  -2   6   7  0.000519 -0.000028
 -5  -4  -2   6   8 -0.000108  0.000033
 -5  -4  -2   6   9  0.000089 -0.000002
 -5  -4  -2   6  10 -0.000008 -0.000038
 -5  -4  -2   7   1 -0.000016  0.000027
 -5  -4  -2   7   2  0.000104  0.000147
 -5  -4  -2   7   3 -0.000341 -0.000016
 -5  -4  -2   7   4  0.000406 -0.000124
 -5  -4  -2   7   5 -0.000242 -0.000077
 -5  -4  -2   7   6 -0.000441  0.000025
 -5  -4  -2   7   7  0.000234  0.000151
 -5  -4  -2   7   8  0.000003  0.000139
 -5  -4  -2   7   9  0.000237 -0.000146
 -5  -4  -2   7  10 -0.000133 -0.000028
 -5  -4  -2   8   1  0.000091  0.000011
 -5  -4  -2   8   2  0.000276 -0.000037
 -5  -4  -2   8   3 -0.000103  0.000008
 -5  -4  -2   8   4 -0.000145  0.000077
 -5  -4  -2   8   5 -0.000044 -0.000047
 -5  -4  -2   8   6  0.000164 -0.000005
 -5  -4  -2   8   7 -0.000242 -0.000050
 -5  -4  -2   8   8  0.000459  0.000011
 -5  -4  -2   8   9 -0.000353 -0.000059
 -5  -4  -2   8  10 -0.000344 -0.000071
 -5  -4  -2   9   1  0.000111 -0.000016
 -5  -4  -2   9   2  0.000365 -0.000322
 -5  -4  -2   9   3  0.000196 -0.000246
 -5  -4  -2   9   4  0.000125  0.000123
 -5  -4  -2   9   5  0.000121 -0.000056
 -5  -4  -2   9   6  0.000274 -0.000048
 -5  -4  -2   9   7  0.000412  0.000059
 -5  -4  -2   9   8  0.000355 -0.000262
 -5  -4  -2   9   9  0.000101  0.000271
 -5  -4  -2   9  10  0.000313  0.000075
 -5  -4  -2  10   1  0.000348  0.000019
 -5  -4  -2  10   2 -0.000317 -0.000117
 -5  -4  -2  10   3  0.000148  0.000096
 -5  -4  -2  10   4  0.000045 -0.000088
 -5  -4  -2  10   5  0.000278  0.000146
 -5  -4  -2  10   6 -0.000170  0.000006
 -5  -4  -2  10   7 -0.000309 -0.000056
 -5  -4  -2  10   8  0.000166  0.000125
 -5  -4  -2  10   9  0.000268  0.000212
 -5  -4  -2  10  10  0.000163 -0.000128
 -5  -4  -1   1   1  0.000193  0.000005
 -5  -4  -1   1   2 -0.000710  0.000024
 -5  -4  -1   1   3 -0.000988  0.000018
 -5  -4  -1   1   4  0.000025  0.000021
 -5  -4  -1   1   5  0.000116  0.000009
 -5  -4  -1   1   6 -0.000782  0.000015
 -5  -4  -1   1   7 -0.000164  0.000035
 -5  -4  -1   1   8 -0.000203 -0.000000
 -5  -4  -1   1   9 -0.000197 -0.000017
 -5  -4  -1   1  10  0.000119  0.000053
 -5  -4  -1   2   1 -0.000022 -0.000037
 -5  -4  -1   2   2 -0.000500  0.000056
 -5  -4  -1   2   3  0.000006 -0.000092
 -5  -4  -1   2   4 -0.000414 -0.000067
 -5  -4  -1   2   5 -0.000164  0.000046
 -5  -4  -1   2   6  0.000165 -0.000037
 -5  -4  -1   2   7 -0.000539  0.000058
 -5  -4  -1   2   8 -0.000616 -0.000071
 -5  -4  -1   2   9 -0.000226  0.000045
 -5  -4  -1   2  10 -0.000192 -0.000136
 -5  -4  -1   3   1  0.000745 -0.000010
 -5  -4  -1   3   2  0.000317  0.000107
 -5  -4  -1   3   3 -0.000438 -0.000032
 -5  -4  -1   3   4  0.000813  0.000297
 -5  -4  -1   3   5  0.000334  0.000152
 -5  -4  -1   3   6 -0.000204  0.000005
 -5  -4  -1   3   7  0.000566  0.000094
 -5  -4  -1   3   8 -0.000225  0.000020
 -5  -4  -1   3   9  0.000754  0.000213
 -5  -4  -1   3  10 -0.000016  0.000046
 -5  -4  -1   4   1  0.000234  0.000116
 -5  -4  -1   4   2  0.000379  0.000103
 -5  -4  -1   4   3 -0.001087  0.000187
 -5  -4  -1   4   4  0.000513  0.000112
 -5  -4  -1   4   5 -0.000212  0.000116
 -5  -4  -1   4   6  0.000146 -0.000000
 -5  -4  -1   4   7 -0.000034  0.000116
 -5  -4  -1   4   8 -0.000769 -0.000042
 -5  -4  -1   4   9  0.000823  0.000007
 -5  -4  -1   4  10  0.001223 -0.000093
 -5  -4  -1   5   1  0.000056  0.000052
 -5  -4  -1   5   2 -0.001093 -0.000143
 -5  -4  -1   5   3 -0.001009 -0.000026
 -5  -4  -1   5   4 -0.000141  0.000156
 -5  -4  -1   5   5  0.000121 -0.000006
 -5  -4  -1   5   6 -0.000162 -0.000026
 -5  -4  -1   5   7 -0.000335 -0.000120
 -5  -4  -1   5   8  0.000033  0.000105
 -5  -4  -1   5   9  0.001184  0.000111
 -5  -4  -1   5  10  0.000127  0.000104
 -5  -4  -1   6   1  0.000855  0.000000
 -5  -4  -1   6   2 -0.000085  0.000043
 -5  -4  -1   6   3 -0.000498 -0.000020
 -5  -4  -1   6   4  0.000057  0.000088
 -5  -4  -1   6   5 -0.000300 -0.000003
 -5  -4  -1   6   6  0.000216 -0.000000
 -5  -4  -1   6   7  0.000020  0.000037
 -5  -4  -1   6   8  0.000735 -0.000015
 -5  -4  -1   6   9 -0.000205 -0.000044
 -5  -4  -1   6  10  0.000012  0.000025
 -5  -4  -1   7   1  0.000103 -0.000043
 -5  -4  -1   7   2  0.000579  0.000071
 -5  -4  -1   7   3  0.000812 -0.000075
 -5  -4  -1   7   4  0.000496  0.000200
 -5  -4  -1   7   5  0.000191  0.000084
 -5  -4  -1   7   6  0.000729 -0.000048
 -5  -4  -1   7   7 -0.000458  0.000081
 -5  -4  -1   7   8 -0.000371 -0.000074
 -5  -4  -1   7   9  0.000115  0.000278
 -5  -4  -1   7  10 -0.000950 -0.000106
 -5  -4  -1   8   1 -0.000503 -0.000015
 -5  -4  -1   8   2 -0.000773  0.000047
 -5  -4  -1   8   3 -0.000199  0.000076
 -5  -4  -1   8   4  0.001031 -0.000152
 -5  -4  -1   8   5 -0.000510  0.000106
 -5  -4  -1   8   6 -0.000992  0.000021
 -5  -4  -1   8   7  0.000062  0.000062
 -5  -4  -1   8   8 -0.000396 -0.000007
 -5  -4  -1   8   9  0.001281 -0.000116
 -5  -4  -1   8  10  0.000902  0.000139
 -5  -4  -1   9   1 -0.000045  0.000120
 -5  -4  -1   9   2  0.000537 -0.000008
 -5  -4  -1   9   3 -0.001002  0.000072
 -5  -4  -1   9   4  0.000023  0.000081
 -5  -4  -1   9   5 -0.000138  0.000097
 -5  -4  -1   9   6 -0.000025  0.000052
 -5  -4  -1   9   7 -0.000465 -0.000035
 -5  -4  -1   9   8 -0.000882 -0.000140
 -5  -4  -1   9   9  0.000039 -0.000187
 -5  -4  -1   9  10 -0.000073 -0.000006
 -5  -4  -1  10   1  0.000274  0.000033
 -5  -4  -1  10   2  0.000285  0.000066
 -5  -4  -1  10   3  0.000340 -0.000105
 -5  -4  -1  10   4  0.000017 -0.000034
 -5  -4  -1  10   5 -0.000585  0.000049
 -5  -4  -1  10   6 -0.000189 -0.000083
 -5  -4  -1  10   7 -0.000122  0.000043
 -5  -4  -1  10   8 -0.000438 -0.000005
 -5  -4  -1  10   9 -0.000155  0.000011
 -5  -4  -1  10  10  0.000101 -0.000022
 -5  -4   0   1   1 -0.001251 -0.000029
 -5  -4   0   1   2  0.000522  0.000015
 -5  -4   0   1   3 -0.001612 -0.000011
 -5  -4   0   1   4  0.000765 -0.000070
 -5  -4   0   1   5  0.000750 -0.000037
 -5  -4   0   1   6 -0.003035 -0.000017
 -5  -4   0   1   7 -0.002071  0.000017
 -5  -4   0   1   8  0.000015 -0.000018
 -5  -4   0   1   9  0.000042  0.000002
 -5  -4   0   1  10  0.000008 -0.000017
 -5  -4   0   2   1 -0.000508 -0.000016
 -5  -4   0   2   2 -0.000747 -0.000163
 -5  -4   0   2   3 -0.001702 -0.000072
 -5  -4   0   2   4  0.001260 -0.000217
 -5  -4   0   2   5 -0.000337  0.000056
 -5  -4   0   2   6  0.002082 -0.000029
 -5  -4   0   2   7 -0.000865 -0.000181
 -5  -4   0   2   8 -0.000021 -0.000008
 -5  -4   0   2   9  0.000351 -0.000337
 -5  -4   0   2  10 -0.000050  0.000065
 -5  -4   0   3   1  0.001618 -0.000005
 -5  -4   0   3   2 -0.001596  0.000058
 -5  -4   0   3   3  0.001486 -0.000039
 -5  -4   0   3   4 -0.001655 -0.000148
 -5  -4   0   3   5 -0.000185  0.000082
 -5  -4   0   3   6  0.000019 -0.000010
 -5  -4   0   3   7  0.000023  0.000064
 -5  -4   0   3   8  0.001451 -0.000059
 -5  -4   0   3   9  0.000812 -0.000082
 -5  -4   0   3  10 -0.001115  0.000061
 -5  -4   0   4   1  0.000901 -0.000045
 -5  -4   0   4   2 -0.000754  0.000313
 -5  -4   0   4   3  0.001816 -0.000019
 -5  -4   0   4   4 -0.000610  0.000124
 -5  -4   0   4   5  0.000626 -0.000277
 -5  -4   0   4   6 -0.000008 -0.000041
 -5  -4   0   4   7  0.000264 -0.000381
 -5  -4   0   4   8 -0.000741 -0.000240
 -5  -4   0   4   9 -0.000845 -0.000180
 -5  -4   0   4  10 -0.001030  0.000163
 -5  -4   0   5   1  0.000600 -0.000021
 -5  -4   0   5   2  0.000441 -0.000026
 -5  -4   0   5   3  0.000128 -0.000052
 -5  -4   0   5   4  0.000536 -0.000212
 -5  -4   0   5   5  0.000028  0.000146
 -5  -4   0   5   6 -0.000120 -0.000004
 -5  -4   0   5   7 -0.000001 -0.000067
 -5  -4   0   5   8  0.001079 -0.000082
 -5  -4   0   5   9 -0.001121 -0.000046
 -5  -4   0   5  10 -0.000246 -0.000169
 -5  -4   0   6   1  0.001641 -0.000027
 -5  -4   0   6   2 -0.000270  0.000011
 -5  -4   0   6   3  0.000084 -0.000000
 -5  -4   0   6   4 -0.000119 -0.000049
 -5  -4   0   6   5  0.000493  0.000036
 -5  -4   0   6   6 -0.001244 -0.000014
 -5  -4   0   6   7  0.000514  0.000008
 -5  -4   0   6   8  0.001626 -0.000023
 -5  -4   0   6   9 -0.000910 -0.000017
 -5  -4   0   6  10 -0.000736  0.000030
 -5  -4   0   7   1  0.000247 -0.000007
 -5  -4   0   7   2  0.002620 -0.000172
 -5  -4   0   7   3 -0.001058 -0.000023
 -5  -4   0   7   4  0.000570  0.000444
 -5  -4   0   7   5 -0.000808  0.000026
 -5  -4   0   7   6 -0.000518 -0.000001
 -5  -4   0   7   7 -0.000737 -0.000131
 -5  -4   0   7   8  0.001614  0.000024
 -5  -4   0   7   9 -0.001109  0.000438
 -5  -4   0   7  10  0.000326  0.000085
 -5  -4   0   8   1  0.000083 -0.000004
 -5  -4   0   8   2  0.001059 -0.000079
 -5  -4   0   8   3 -0.003207 -0.000027
 -5  -4   0   8   4  0.000723 -0.000136
 -5  -4   0   8   5  0.001074  0.000004
 -5  -4   0   8   6 -0.001613 -0.000001
 -5  -4   0   8   7  0.001765  0.000011
 -5  -4   0   8   8  0.001477 -0.000025
 -5  -4   0   8   9 -0.001974  0.000143
 -5  -4   0   8  10 -0.000116 -0.000002
 -5  -4   0   9   1 -0.000072 -0.000082
 -5  -4   0   9   2  0.000963  0.000305
 -5  -4   0   9   3 -0.000840  0.000150
 -5  -4   0   9   4 -0.000249 -0.000200
 -5  -4   0   9   5 -0.000090 -0.000095
 -5  -4   0   9   6 -0.000881 -0.000019
 -5  -4   0   9   7  0.001318 -0.000370
 -5  -4   0   9   8  0.001918 -0.000065
 -5  -4   0   9   9 -0.000847 -0.000023
 -5  -4   0   9  10  0.000517 -0.000008
 -5  -4   0  10   1 -0.000416 -0.000039
 -5  -4   0  10   2 -0.000780  0.000091
 -5  -4   0  10   3 -0.001146 -0.000063
 -5  -4   0  10   4 -0.000091  0.000291
 -5  -4   0  10   5  0.001310 -0.000170
 -5  -4   0  10   6 -0.000606  0.000024
 -5  -4   0  10   7 -0.000321  0.000035
 -5  -4   0  10   8  0.000046 -0.000113
 -5  -4   0  10   9  0.000588 -0.000070
 -5  -4   0  10  10  0.000024  0.000154
 -5  -4   1   1   1  0.000200  0.000010
 -5  -4   1   1   2  0.000020 -0.000034
 -5  -4   1   1   3 -0.000712 -0.000019
 -5  -4   1   1   4  0.000320  0.000056
 -5  -4   1   1   5  0.000075  0.000009
 -5  -4   1   1   6 -0.000788 -0.000006
 -5  -4   1   1   7 -0.000153 -0.000036
 -5  -4   1   1   8  0.000201  0.000005
 -5  -4   1   1   9  0.000200  0.000011
 -5  -4   1   1  10 -0.000129 -0.000044
 -5  -4   1   2   1  0.000709  0.000048
 -5  -4   1   2   2 -0.000610  0.000015
 -5  -4   1   2   3  0.000354  0.000075
 -5  -4   1   2   4 -0.000480 -0.000110
 -5  -4   1   2   5  0.001038 -0.000052
 -5  -4   1   2   6  0.000150  0.000057
 -5  -4   1   2   7 -0.000708  0.000001
 -5  -4   1   2   8  0.000603  0.000105
 -5  -4   1   2   9 -0.000169 -0.000142
 -5  -4   1   2  10  0.000219  0.000086
 -5  -4   1   3   1  0.000955  0.000015
 -5  -4   1   3   2 -0.000012 -0.000070
 -5  -4   1   3   3 -0.000370  0.000092
 -5  -4   1   3   4  0.000952 -0.000170
 -5  -4   1   3   5  0.000934 -0.000186
 -5  -4   1   3   6  0.000191  0.000002
 -5  -4   1   3   7 -0.000559 -0.000082
 -5  -4   1   3   8 -0.000322  0.000062
 -5  -4   1   3   9  0.000613 -0.000145
 -5  -4   1   3  10 -0.000263 -0.000084
 -5  -4   1   4   1  0.000050 -0.000038
 -5  -4   1   4   2  0.000205 -0.000123
 -5  -4   1   4   3 -0.000712 -0.000149
 -5  -4   1   4   4  0.000304 -0.000027
 -5  -4   1   4   5 -0.000267  0.000136
 -5  -4   1   4   6 -0.000117  0.000043
 -5  -4   1   4   7 -0.000150 -0.000375
 -5  -4   1   4   8 -0.000590  0.000107
 -5  -4   1   4   9 -0.000173  0.000016
 -5  -4   1   4  10  0.001046 -0.000089
 -5  -4   1   5   1  0.000205 -0.000044
 -5  -4   1   5   2  0.000155  0.000144
 -5  -4   1   5   3 -0.000230  0.000056
 -5  -4   1   5   4 -0.000243  0.000045
 -5  -4   1   5   5  0.000194 -0.000044
 -5  -4   1   5   6  0.000214  0.000024
 -5  -4   1   5   7  0.000340  0.000155
 -5  -4   1   5   8  0.000241 -0.000058
 -5  -4   1   5   9  0.001264  0.000017
 -5  -4   1   5  10 -0.000065 -0.000026
 -5  -4   1   6   1  0.000274  0.000013
 -5  -4   1   6   2  0.000361 -0.000045
 -5  -4   1   6   3  0.000274  0.000016
 -5  -4   1   6   4  0.000017  0.000004
 -5  -4   1   6   5  0.000522 -0.000014
 -5  -4   1   6   6  0.000175  0.000007
 -5  -4   1   6   7 -0.000718 -0.000036
 -5  -4   1   6   8  0.000970  0.000024
 -5  -4   1   6   9 -0.000035  0.000090
 -5  -4   1   6  10 -0.000215 -0.000035
 -5  -4   1   7   1 -0.000350  0.000046
 -5  -4   1   7   2  0.000316 -0.000014
 -5  -4   1   7   3  0.000319  0.000068
 -5  -4   1   7   4  0.000800 -0.000164
 -5  -4   1   7   5  0.000924 -0.000094
 -5  -4   1   7   6 -0.000032  0.000043
 -5  -4   1   7   7 -0.000648  0.000017
 -5  -4   1   7   8  0.000096  0.000143
 -5  -4   1   7   9  0.000336 -0.000138
 -5  -4   1   7  10  0.000080  0.000078
 -5  -4   1   8   1  0.000267  0.000018
 -5  -4   1   8   2 -0.000381 -0.000076
 -5  -4   1   8   3  0.000015 -0.000005
 -5  -4   1   8   4  0.001176  0.000083
 -5  -4   1   8   5 -0.000457 -0.000114
 -5  -4   1   8   6 -0.000720 -0.000018
 -5  -4   1   8   7 -0.000393 -0.000072
 -5  -4   1   8   8 -0.000378  0.000093
 -5  -4   1   8   9  0.000806 -0.000034
 -5  -4   1   8  10  0.000336 -0.000141
 -5  -4   1   9   1  0.000079 -0.000009
 -5  -4   1   9   2  0.000744 -0.000017
 -5  -4   1   9   3 -0.001039 -0.000054
 -5  -4   1   9   4  0.000270 -0.000072
 -5  -4   1   9   5  0.000063  0.000079
 -5  -4   1   9   6 -0.000219  0.000026
 -5  -4   1   9   7 -0.000370 -0.000147
 -5  -4   1   9   8 -0.000874  0.000156
 -5  -4   1   9   9  0.000306 -0.000099
 -5  -4   1   9  10 -0.000433 -0.000112
 -5  -4   1  10   1 -0.000533 -0.000016
 -5  -4   1  10   2  0.000831 -0.000110
 -5  -4   1  10   3  0.000653  0.000131
 -5  -4   1  10   4 -0.000149 -0.000213
 -5  -4   1  10   5 -0.002092  0.000027
 -5  -4   1  10   6 -0.000071  0.000075
 -5  -4   1  10   7  0.000979 -0.000066
 -5  -4   1  10   8 -0.000756  0.000045
 -5  -4   1  10   9 -0.000409 -0.000086
 -5  -4   1  10  10  0.000217 -0.000064
 -5  -4   2   1   1  0.000017  0.000024
 -5  -4   2   1   2  0.000502  0.000002
 -5  -4   2   1   3  0.000073  0.000026
 -5  -4   2   1   4 -0.000079  0.000029
 -5  -4   2   1   5 -0.000042  0.000040
 -5  -4   2   1   6  0.000273  0.000018
 -5  -4   2   1   7 -0.000149 -0.000007
 -5  -4   2   1   8  0.000173  0.000019
 -5  -4   2   1   9  0.000093 -0.000003
 -5  -4   2   1  10  0.000192  0.000028
 -5  -4   2   2   1 -0.000436 -0.000010
 -5  -4   2   2   2  0.000316  0.000161
 -5  -4   2   2   3  0.000186 -0.000005
 -5  -4   2   2   4  0.000274  0.000056
 -5  -4   2   2   5  0.000090 -0.000009
 -5  -4   2   2   6  0.000143 -0.000002
 -5  -4   2   2   7  0.000436  0.000133
 -5  -4   2   2   8 -0.000166  0.000001
 -5  -4   2   2   9  0.000114  0.000099
 -5  -4   2   2  10  0.000422 -0.000116
 -5  -4   2   3   1 -0.000149  0.000006
 -5  -4   2   3   2  0.000074  0.000102
 -5  -4   2   3   3  0.000478  0.000026
 -5  -4   2   3   4 -0.000144  0.000307
 -5  -4   2   3   5 -0.000336 -0.000004
 -5  -4   2   3   6  0.000175  0.000012
 -5  -4   2   3   7  0.000112  0.000060
 -5  -4   2   3   8  0.000316  0.000016
 -5  -4   2   3   9 -0.000371  0.000143
 -5  -4   2   3  10 -0.000045 -0.000014
 -5  -4   2   4   1 -0.000347  0.000022
 -5  -4   2   4   2 -0.000363 -0.000194
 -5  -4   2   4   3 -0.000006 -0.000074
 -5  -4   2   4   4 -0.000375  0.000001
 -5  -4   2   4   5  0.000297  0.000053
 -5  -4   2   4   6 -0.000253  0.000000
 -5  -4   2   4   7  0.000110  0.000030
 -5  -4   2   4   8  0.000439  0.000035
 -5  -4   2   4   9  0.000927  0.000194
 -5  -4   2   4  10 -0.000435 -0.000009
 -5  -4   2   5   1  0.000175  0.000032
 -5  -4   2   5   2  0.000174 -0.000044
 -5  -4   2   5   3  0.000021  0.000018
 -5  -4   2   5   4  0.000297  0.000061
 -5  -4   2   5   5  0.000116 -0.000137
 -5  -4   2   5   6 -0.000116 -0.000016
 -5  -4   2   5   7  0.000326  0.000001
 -5  -4   2   5   8  0.000107  0.000082
 -5  -4   2   5   9 -0.000454 -0.000086
 -5  -4   2   5  10  0.000513  0.000176
 -5  -4   2   6   1 -0.000131  0.000020
 -5  -4   2   6   2  0.000421  0.000011
 -5  -4   2   6   3  0.000409  0.000001
 -5  -4   2   6   4 -0.000006 -0.000008
 -5  -4   2   6   5  0.000304 -0.000026
 -5  -4   2   6   6  0.000021  0.000009
 -5  -4   2   6   7  0.000445  0.000003
 -5  -4   2   6   8 -0.000168  0.000013
 -5  -4   2   6   9  0.000261 -0.000063
 -5  -4   2   6  10 -0.000027 -0.000022
 -5  -4   2   7   1 -0.000413 -0.000011
 -5  -4   2   7   2  0.000351  0.000136
 -5  -4   2   7   3  0.000070 -0.000025
 -5  -4   2   7   4 -0.000100 -0.000213
 -5  -4   2   7   5 -0.000251  0.000007
 -5  -4   2   7   6 -0.000505 -0.000012
 -5  -4   2   7   7  0.000332  0.000136
 -5  -4   2   7   8 -0.000112 -0.000034
 -5  -4   2   7   9 -0.000480 -0.000181
 -5  -4   2   7  10  0.000318 -0.000113
 -5  -4   2   8   1  0.000419  0.000003
 -5  -4   2   8   2 -0.000019 -0.000024
 -5  -4   2   8   3 -0.000345  0.000026
 -5  -4   2   8   4 -0.000236  0.000270
 -5  -4   2   8   5 -0.000376  0.000056
 -5  -4   2   8   6  0.000085  0.000015
 -5  -4   2   8   7 -0.000125 -0.000052
 -5  -4   2   8   8  0.000459  0.000006
 -5  -4   2   8   9 -0.000041  0.000203
 -5  -4   2   8  10 -0.000044  0.000054
 -5  -4   2   9   1  0.000082  0.000026
 -5  -4   2   9   2 -0.000067 -0.000269
 -5  -4   2   9   3 -0.000025 -0.000300
 -5  -4   2   9   4 -0.000415  0.000144
 -5  -4   2   9   5  0.000011 -0.000111
 -5  -4   2   9   6  0.000077 -0.000046
 -5  -4   2   9   7  0.000081 -0.000074
 -5  -4   2   9   8  0.000165 -0.000083
 -5  -4   2   9   9 -0.000038 -0.000119
 -5  -4   2   9  10  0.000469  0.000181
 -5  -4   2  10   1 -0.000379  0.000049
 -5  -4   2  10   2 -0.000256 -0.000038
 -5  -4   2  10   3  0.000295  0.000003
 -5  -4   2  10   4  0.000169 -0.000082
 -5  -4   2  10   5  0.000097  0.000154
 -5  -4   2  10   6 -0.000103 -0.000052
 -5  -4   2  10   7  0.000101 -0.000006
 -5  -4   2  10   8  0.000349  0.000111
 -5  -4   2  10   9  0.000445  0.000214
 -5  -4   2  10  10  0.000113 -0.000107
 -5  -4   3   1   1 -0.000334 -0.000019
 -5  -4   3   1   2 -0.000031  0.000038
 -5  -4   3   1   3 -0.000229 -0.000001
 -5  -4   3   1   4 -0.000030 -0.000055
 -5  -4   3   1   5 -0.000027 -0.000040
 -5  -4   3   1   6 -0.000730 -0.000002
 -5  -4   3   1   7  0.000117  0.000045
 -5  -4   3   1   8 -0.000034 -0.000014
 -5  -4   3   1   9  0.000113 -0.000017
 -5  -4   3   1  10 -0.000014  0.000046
 -5  -4   3   2   1  0.000105 -0.000038
 -5  -4   3   2   2 -0.000247 -0.000122
 -5  -4   3   2   3 -0.000220 -0.000119
 -5  -4   3   2   4  0.000176  0.000118
 -5  -4   3   2   5 -0.000225  0.000076
 -5  -4   3   2   6 -0.000109 -0.000049
 -5  -4   3   2   7 -0.000099 -0.000129
 -5  -4   3   2   8 -0.000097 -0.000009
 -5  -4   3   2   9  0.000336  0.000117
 -5  -4   3   2  10 -0.000157 -0.000061
 -5  -4   3   3   1  0.000235 -0.000019
 -5  -4   3   3   2 -0.000067  0.000041
 -5  -4   3   3   3  0.000314 -0.000024
 -5  -4   3   3   4  0.000437  0.000172
 -5  -4   3   3   5 -0.000023  0.000174
 -5  -4   3   3   6 -0.000033 -0.000009
 -5  -4   3   3   7  0.000190  0.000047
 -5  -4   3   3   8  0.000234 -0.000089
 -5  -4   3   3   9  0.000520  0.000195
 -5  -4   3   3  10  0.000039  0.000099
 -5  -4   3   4   1  0.000107  0.000057
 -5  -4   3   4   2  0.000217 -0.000075
 -5  -4   3   4   3 -0.000272 -0.000167
 -5  -4   3   4   4  0.000402  0.000172
 -5  -4   3   4   5  0.000084 -0.000042
 -5  -4   3   4   6 -0.000065 -0.000038
 -5  -4   3   4   7  0.000261 -0.000025
 -5  -4   3   4   8 -0.000473 -0.000048
 -5  -4   3   4   9 -0.000449 -0.000136
 -5  -4   3   4  10  0.000085  0.000028
 -5  -4   3   5   1 -0.000121  0.000043
 -5  -4   3   5   2 -0.000337 -0.000117
 -5  -4   3   5   3 -0.000249 -0.000066
 -5  -4   3   5   4 -0.000122  0.000005
 -5  -4   3   5   5 -0.000033  0.000114
 -5  -4   3   5   6 -0.000112 -0.000002
 -5  -4   3   5   7 -0.000232 -0.000154
 -5  -4   3   5   8 -0.000056  0.000028
 -5  -4   3   5   9 -0.000073  0.000089
 -5  -4   3   5  10  0.000131 -0.000051
 -5  -4   3   6   1 -0.000616 -0.000019
 -5  -4   3   6   2  0.000092  0.000045
 -5  -4   3   6   3 -0.000039 -0.000024
 -5  -4   3   6   4 -0.000002  0.000027
 -5  -4   3   6   5 -0.000156  0.000015
 -5  -4   3   6   6 -0.000310 -0.000011
 -5  -4   3   6   7 -0.000107  0.000037
 -5  -4   3   6   8  0.000236 -0.000030
 -5  -4   3   6   9 -0.000028 -0.000055
 -5  -4   3   6  10  0.000060  0.000055
 -5  -4   3   7   1 -0.000097 -0.000042
 -5  -4   3   7   2 -0.000306 -0.000100
 -5  -4   3   7   3 -0.000176 -0.000111
 -5  -4   3   7   4  0.000024 -0.000129
 -5  -4   3   7   5 -0.000037  0.000094
 -5  -4   3   7   6  0.000046 -0.000043
 -5  -4   3   7   7 -0.000216 -0.000105
 -5  -4   3   7   8  0.000145 -0.000016
 -5  -4   3   7   9  0.000234 -0.000070
 -5  -4   3   7  10 -0.000308 -0.000025
 -5  -4   3   8   1 -0.000046 -0.000021
 -5  -4   3   8   2  0.000081  0.000086
 -5  -4   3   8   3  0.000340 -0.000018
 -5  -4   3   8   4  0.000217 -0.000056
 -5  -4   3   8   5  0.000029  0.000081
 -5  -4   3   8   6 -0.000234  0.000010
 -5  -4   3   8   7  0.000144  0.000096
 -5  -4   3   8   8  0.000342 -0.000007
 -5  -4   3   8   9  0.000050  0.000110
 -5  -4   3   8  10  0.000164  0.000118
 -5  -4   3   9   1 -0.000082  0.000045
 -5  -4   3   9   2  0.000001 -0.000176
 -5  -4   3   9   3 -0.000244 -0.000112
 -5  -4   3   9   4 -0.000135  0.000038
 -5  -4   3   9   5 -0.000048  0.000097
 -5  -4   3   9   6 -0.000012  0.000033
 -5  -4   3   9   7  0.000110 -0.000076
 -5  -4   3   9   8 -0.000456 -0.000116
 -5  -4   3   9   9  0.000142 -0.000099
 -5  -4   3   9  10 -0.000097 -0.000033
 -5  -4   3  10   1  0.000202 -0.000012
 -5  -4   3  10   2  0.000065  0.000121
 -5  -4   3  10   3 -0.000191 -0.000126
 -5  -4   3  10   4  0.000042  0.000123
 -5  -4   3  10   5  0.000470 -0.000093
 -5  -4   3  10   6  0.000089 -0.000059
 -5  -4   3  10   7 -0.000175  0.000062
 -5  -4   3  10   8 -0.000151 -0.000107
 -5  -4   3  10   9  0.000129 -0.000117
 -5  -4   3  10  10 -0.000059  0.000102
 -5  -3  -3   1   1 -0.000205  0.000021
 -5  -3  -3   1   2  0.000200 -0.000018
 -5  -3  -3   1   3  0.000124  0.000036
 -5  -3  -3   1   4 -0.000055  0.000029
 -5  -3  -3   1   5  0.000128 -0.000033
 -5  -3  -3   1   6 -0.000488  0.000022
 -5  -3  -3   1   7  0.000027 -0.000017
 -5  -3  -3   1   8  0.000016  0.000024
 -5  -3  -3   1   9  0.000149 -0.000017
 -5  -3  -3   1  10  0.000003  0.000052
 -5  -3  -3   2   1 -0.000283  0.000018
 -5  -3  -3   2   2  0.000002  0.000145
 -5  -3  -3   2   3 -0.000166  0.000011
 -5  -3  -3   2   4  0.000109  0.000053
 -5  -3  -3   2   5 -0.000287 -0.000004
 -5  -3  -3   2   6 -0.000013  0.000004
 -5  -3  -3   2   7 -0.000157  0.000128
 -5  -3  -3   2   8 -0.000280 -0.000013
 -5  -3  -3   2   9  0.000005  0.000025
 -5  -3  -3   2  10 -0.000167 -0.000062
 -5  -3  -3   3   1 -0.000336  0.000008
 -5  -3  -3   3   2  0.000090  0.000074
 -5  -3  -3   3   3 -0.000032  0.000017
 -5  -3  -3   3   4 -0.000075  0.000177
 -5  -3  -3   3   5 -0.000071  0.000113
 -5  -3  -3   3   6  0.000019  0.000023
 -5  -3  -3   3   7  0.000180  0.000044
 -5  -3  -3   3   8 -0.000025  0.000026
 -5  -3  -3   3   9  0.000251  0.000163
 -5  -3  -3   3  10  0.000025  0.000083
 -5  -3  -3   4   1 -0.000127  0.000047
 -5  -3  -3   4   2  0.000180 -0.000247
 -5  -3  -3   4   3  0.000006 -0.000249
 -5  -3  -3   4   4  0.000413 -0.000221
 -5  -3  -3   4   5  0.000227  0.000011
 -5  -3  -3   4   6 -0.000212 -0.000031
 -5  -3  -3   4   7 -0.000036  0.000062
 -5  -3  -3   4   8 -0.000396  0.000013
 -5  -3  -3   4   9  0.000078  0.000051
 -5  -3  -3   4  10  0.000181 -0.000064
 -5  -3  -3   5   1 -0.000254  0.000026
 -5  -3  -3   5   2 -0.000093 -0.000105
 -5  -3  -3   5   3 -0.000091 -0.000128
 -5  -3  -3   5   4  0.000107  0.000110
 -5  -3  -3   5   5  0.000051 -0.000116
 -5  -3  -3   5   6 -0.000034 -0.000078
 -5  -3  -3   5   7 -0.000428 -0.000117
 -5  -3  -3   5   8 -0.000003 -0.000008
 -5  -3  -3   5   9  0.000116 -0.000069
 -5  -3  -3   5  10  0.000348  0.000156
 -5  -3  -3   6   1 -0.000329  0.000010
 -5  -3  -3   6   2  0.000019 -0.000005
 -5  -3  -3   6   3  0.000090  0.000012
 -5  -3  -3   6   4 -0.000070  0.000081
 -5  -3  -3   6   5  0.000157  0.000006
 -5  -3  -3   6   6 -0.000187  0.000013
 -5  -3  -3   6   7  0.000274 -0.000015
 -5  -3  -3   6   8 -0.000359 -0.000005
 -5  -3  -3   6   9  0.000116 -0.000021
 -5  -3  -3   6  10  0.000291  0.000038
 -5  -3  -3   7   1 -0.000023  0.000012
 -5  -3  -3   7   2  0.000314  0.000159
 -5  -3  -3   7   3  0.000054 -0.000005
 -5  -3  -3   7   4  0.000559 -0.000131
 -5  -3  -3   7   5 -0.000156  0.000034
 -5  -3  -3   7   6 -0.000171  0.000006
 -5  -3  -3   7   7  0.000023  0.000143
 -5  -3  -3   7   8 -0.000194 -0.000047
 -5  -3  -3   7   9 -0.000061 -0.000169
 -5  -3  -3   7  10  0.000152 -0.000004
 -5  -3  -3   8   1  0.000090  0.000020
 -5  -3  -3   8   2  0.000038 -0.000027
 -5  -3  -3   8   3 -0.000068  0.000102
 -5  -3  -3   8   4  0.000044  0.000031
 -5  -3  -3   8   5 -0.000270  0.000058
 -5  -3  -3   8   6  0.000118  0.000037
 -5  -3  -3   8   7  0.000255 -0.000026
 -5  -3  -3   8   8 -0.000008  0.000007
 -5  -3  -3   8   9 -0.000030  0.000111
 -5  -3  -3   8  10  0.000031  0.000098
 -5  -3  -3   9   1  0.000054 -0.000004
 -5  -3  -3   9   2  0.000466 -0.000254
 -5  -3  -3   9   3  0.000014 -0.000317
 -5  -3  -3   9   4 -0.000392  0.000144
 -5  -3  -3   9   5 -0.000068 -0.000046
 -5  -3  -3   9   6  0.000060 -0.000045
 -5  -3  -3   9   7 -0.000193 -0.000030
 -5  -3  -3   9   8  0.000016 -0.000170
 -5  -3  -3   9   9  0.000437  0.000110
 -5  -3  -3   9  10  0.000144  0.000151
 -5  -3  -3  10   1 -0.000205  0.000022
 -5  -3  -3  10   2  0.000041  0.000043
 -5  -3  -3  10   3  0.000053 -0.000118
 -5  -3  -3  10   4  0.000011 -0.000075
 -5  -3  -3  10   5 -0.000407  0.000091
 -5  -3  -3  10   6 -0.000164 -0.000030
 -5  -3  -3  10   7 -0.000132  0.000043
 -5  -3  -3  10   8 -0.000163 -0.000058
 -5  -3  -3  10   9  0.000234  0.000103
 -5  -3  -3  10  10  0.000040 -0.000119
 -5  -3  -2   1   1 -0.000209 -0.000012
 -5  -3  -2   1   2 -0.000196  0.000062
 -5  -3  -2   1   3  0.000465  0.000024
 -5  -3  -2   1   4  0.000363 -0.000079
 -5  -3  -2   1   5  0.000150 -0.000057
 -5  -3  -2   1   6  0.000839  0.000005
 -5  -3  -2   1   7 -0.000237  0.000062
 -5  -3  -2   1   8 -0.000049  0.000025
 -5  -3  -2   1   9  0.000103 -0.000041
 -5  -3  -2   1  10 -0.000034 -0.000022
 -5  -3  -2   2   1  0.000133 -0.000060
 -5  -3  -2   2   2 -0.000616 -0.000042
 -5  -3  -2   2   3  0.000418 -0.000120
 -5  -3  -2   2   4 -0.000220  0.000135
 -5  -3  -2   2   5  0.000088  0.000059
 -5  -3  -2   2   6  0.000249 -0.000055
 -5  -3  -2   2   7  0.000100 -0.000041
 -5  -3  -2   2   8  0.000326 -0.000006
 -5  -3  -2   2   9  0.000138  0.000105
 -5  -3  -2   2  10  0.000694  0.000050
 -5  -3  -2   3   1 -0.000097  0.000003
 -5  -3  -2   3   2 -0.000537  0.000021
 -5  -3  -2   3   3  0.000064 -0.000029
 -5  -3  -2   3   4  0.000320  0.000115
 -5  -3  -2   3   5 -0.000291  0.000002
 -5  -3  -2   3   6 -0.000049  0.000023
 -5  -3  -2   3   7 -0.000270  0.000067
 -5  -3  -2   3   8  0.000253 -0.000027
 -5  -3  -2   3   9 -0.000007  0.000260
 -5  -3  -2   3  10  0.000200  0.000114
 -5  -3  -2   4   1 -0.000034 -0.000004
 -5  -3  -2   4   2  0.000241 -0.000247
 -5  -3  -2   4   3 -0.000486 -0.000244
 -5  -3  -2   4   4  0.000033 -0.000191
 -5  -3  -2   4   5 -0.000029 -0.000080
 -5  -3  -2   4   6 -0.000028 -0.000013
 -5  -3  -2   4   7  0.000165  0.000086
 -5  -3  -2   4   8  0.000031 -0.000159
 -5  -3  -2   4   9  0.000263 -0.000140
 -5  -3  -2   4  10  0.000621  0.000092
 -5  -3  -2   5   1  0.000040 -0.000038
 -5  -3  -2   5   2  0.000248  0.000011
 -5  -3  -2   5   3 -0.000388 -0.000026
 -5  -3  -2   5   4 -0.000715 -0.000080
 -5  -3  -2   5   5  0.000498  0.000030
 -5  -3  -2   5   6 -0.000031  0.000008
 -5  -3  -2   5   7  0.000943 -0.000049
 -5  -3  -2   5   8 -0.000225 -0.000033
 -5  -3  -2   5   9  0.000521 -0.000094
 -5  -3  -2   5  10 -0.000225 -0.000047
 -5  -3  -2   6   1  0.001063 -0.000011
 -5  -3  -2   6   2 -0.000074  0.000057
 -5  -3  -2   6   3 -0.000289  0.000016
 -5  -3  -2   6   4  0.000070 -0.000014
 -5  -3  -2   6   5  0.000009  0.000012
 -5  -3  -2   6   6 -0.000207  0.000003
 -5  -3  -2   6   7 -0.000146  0.000060
 -5  -3  -2   6   8 -0.000068  0.000006
 -5  -3  -2   6   9  0.000070 -0.000010
 -5  -3  -2   6  10 -0.000149  0.000075
 -5  -3  -2   7   1  0.000060 -0.000057
 -5  -3  -2   7   2 -0.000656 -0.000039
 -5  -3  -2   7   3  0.000702 -0.000079
 -5  -3  -2   7   4 -0.000075 -0.000073
 -5  -3  -2   7   5 -0.000214  0.000007
 -5  -3  -2   7   6  0.000213 -0.000044
 -5  -3  -2   7   7 -0.000618 -0.000010
 -5  -3  -2   7   8  0.000594  0.000026
 -5  -3  -2   7   9  0.000386 -0.000040
 -5  -3  -2   7  10 -0.000051  0.000060
 -5  -3  -2   8   1 -0.000298  0.000006
 -5  -3  -2   8   2 -0.000755  0.000024
 -5  -3  -2   8   3  0.000343 -0.000007
 -5  -3  -2   8   4 -0.000047 -0.000193
 -5  -3  -2   8   5  0.000414 -0.000103
 -5  -3  -2   8   6  0.000465  0.000018
 -5  -3  -2   8   7 -0.000467  0.000071
 -5  -3  -2   8   8  0.000048 -0.000001
 -5  -3  -2   8   9  0.000318 -0.000022
 -5  -3  -2   8  10  0.000422  0.000030
 -5  -3  -2   9   1 -0.000134 -0.000047
 -5  -3  -2   9   2  0.000231 -0.000295
 -5  -3  -2   9   3  0.000245 -0.000051
 -5  -3  -2   9   4  0.000010 -0.000012
 -5  -3  -2   9   5  0.000236 -0.000108
 -5  -3  -2   9   6 -0.000364  0.000010
 -5  -3  -2   9   7  0.000228  0.000086
 -5  -3  -2   9   8 -0.000203 -0.000059
 -5  -3  -2   9   9  0.000215  0.000225
 -5  -3  -2   9  10 -0.000714  0.000025
 -5  -3  -2  10   1  0.000020 -0.000022
 -5  -3  -2  10   2 -0.000366  0.000122
 -5  -3  -2  10   3 -0.000455 -0.000041
 -5  -3  -2  10   4  0.000197  0.000074
 -5  -3  -2  10   5 -0.000119 -0.000068
 -5  -3  -2  10   6 -0.000039  0.000019
 -5  -3  -2  10   7 -0.000047  0.000100
 -5  -3  -2  10   8  0.000156 -0.000124
 -5  -3  -2  10   9 -0.000037 -0.000021
 -5  -3  -2  10  10  0.000491  0.000027
 -5  -3  -1   1   1  0.000569 -0.000013
 -5  -3  -1   1   2  0.000246 -0.000016
 -5  -3  -1   1   3  0.000159 -0.000048
 -5  -3  -1   1   4  0.000493  0.000044
 -5  -3  -1   1   5 -0.000156  0.000072
 -5  -3  -1   1   6  0.000460 -0.000022
 -5  -3  -1   1   7  0.000093 -0.000010
 -5  -3  -1   1   8  0.000263 -0.000042
 -5  -3  -1   1   9 -0.000042  0.000029
 -5  -3  -1   1  10  0.000148 -0.000053
 -5  -3  -1   2   1  0.000037  0.000002
 -5  -3  -1   2   2  0.001024 -0.000094
 -5  -3  -1   2   3  0.000239  0.000016
 -5  -3  -1   2   4  0.000203  0.000100
 -5  -3  -1   2   5  0.000421 -0.000028
 -5  -3  -1   2   6 -0.000118  0.000014
 -5  -3  -1   2   7  0.000455 -0.000075
 -5  -3  -1   2   8 -0.000010  0.000003
 -5  -3  -1   2   9  0.000131  0.000148
 -5  -3  -1   2  10  0.000481  0.000049
 -5  -3  -1   3   1  0.000134 -0.000011
 -5  -3  -1   3   2 -0.000556 -0.000005
 -5  -3  -1   3   3  0.000357 -0.000042
 -5  -3  -1   3   4  0.000253  0.000126
 -5  -3  -1   3   5  0.000640 -0.000100
 -5  -3  -1   3   6  0.000253 -0.000034
 -5  -3  -1   3   7 -0.000048  0.000017
 -5  -3  -1   3   8  0.000060  0.000083
 -5  -3  -1   3   9  0.000789  0.000124
 -5  -3  -1   3  10 -0.000570 -0.000150
 -5  -3  -1   4   1  0.000042  0.000020
 -5  -3  -1   4   2  0.000316  0.000095
 -5  -3  -1   4   3 -0.000048  0.000190
 -5  -3  -1   4   4  0.000015  0.000138
 -5  -3  -1   4   5  0.000337  0.000056
 -5  -3  -1   4   6  0.000108  0.000097
 -5  -3  -1   4   7  0.000167  0.000215
 -5  -3  -1   4   8 -0.000709 -0.000249
 -5  -3  -1   4   9  0.000700 -0.000197
 -5  -3  -1   4  10 -0.000628 -0.000019
 -5  -3  -1   5   1  0.000376 -0.000021
 -5  -3  -1   5   2  0.001005  0.000093
 -5  -3  -1   5   3 -0.000440  0.000138
 -5  -3  -1   5   4  0.000944 -0.000031
 -5  -3  -1   5   5 -0.000192  0.000116
 -5  -3  -1   5   6 -0.000089  0.000056
 -5  -3  -1   5   7  0.000626  0.000138
 -5  -3  -1   5   8  0.000547  0.000030
 -5  -3  -1   5   9 -0.000451  0.000149
 -5  -3  -1   5  10 -0.000294 -0.000128
 -5  -3  -1   6   1  0.000514 -0.000005
 -5  -3  -1   6   2 -0.000070 -0.000017
 -5  -3  -1   6   3  0.000256 -0.000020
 -5  -3  -1   6   4  0.000003 -0.000002
 -5  -3  -1   6   5 -0.000156 -0.000002
 -5  -3  -1   6   6  0.000551 -0.000014
 -5  -3  -1   6   7 -0.000034 -0.000015
 -5  -3  -1   6   8  0.000149 -0.000002
 -5  -3  -1   6   9 -0.000036  0.000064
 -5  -3  -1   6  10 -0.000360 -0.000077
 -5  -3  -1   7   1  0.000096  0.000016
 -5  -3  -1   7   2  0.000049 -0.000108
 -5  -3  -1   7   3 -0.000023  0.000052
 -5  -3  -1   7   4  0.000536  0.000131
 -5  -3  -1   7   5  0.000468 -0.000046
 -5  -3  -1   7   6 -0.000269  0.000012
 -5  -3  -1   7   7  0.000987 -0.000055
 -5  -3  -1   7   8  0.000494  0.000050
 -5  -3  -1   7   9  0.000120  0.000252
 -5  -3  -1   7  10  0.000898 -0.000011
 -5  -3  -1   8   1  0.000247 -0.000024
 -5  -3  -1   8   2  0.000056 -0.000071
 -5  -3  -1   8   3 -0.000218 -0.000031
 -5  -3  -1   8   4  0.001235 -0.000168
 -5  -3  -1   8   5 -0.000356 -0.000009
 -5  -3  -1   8   6  0.000150 -0.000045
 -5  -3  -1   8   7 -0.000198 -0.000046
 -5  -3  -1   8   8  0.000342 -0.000002
 -5  -3  -1   8   9  0.000501 -0.000229
 -5  -3  -1   8  10  0.000473 -0.000115
 -5  -3  -1   9   1  0.000041  0.000094
 -5  -3  -1   9   2  0.000673  0.000179
 -5  -3  -1   9   3 -0.001176  0.000267
 -5  -3  -1   9   4  0.001906 -0.000131
 -5  -3  -1   9   5  0.000031  0.000167
 -5  -3  -1   9   6 -0.000466  0.000110
 -5  -3  -1   9   7  0.000276  0.000342
 -5  -3  -1   9   8 -0.000307 -0.000095
 -5  -3  -1   9   9 -0.000149 -0.000126
 -5  -3  -1   9  10  0.000846 -0.000235
 -5  -3  -1  10   1  0.000186 -0.000005
 -5  -3  -1  10   2  0.000350 -0.000111
 -5  -3  -1  10   3  0.000593  0.000131
 -5  -3  -1  10   4 -0.000099  0.000032
 -5  -3  -1  10   5  0.000952 -0.000060
 -5  -3  -1  10   6  0.000139  0.000032
 -5  -3  -1  10   7  0.000316 -0.000082
 -5  -3  -1  10   8 -0.000341  0.000106
 -5  -3  -1  10   9  0.000234 -0.000077
 -5  -3  -1  10  10 -0.000170  0.000092
 -5  -3   0   1   1  0.000505  0.000018
 -5  -3   0   1   2  0.000997 -0.000050
 -5  -3   0   1   3 -0.000914  0.000006
 -5  -3   0   1   4  0.000011  0.000005
 -5  -3   0   1   5 -0.000603  0.000021
 -5  -3   0   1   6  0.000042  0.000003
 -5  -3   0   1   7 -0.000419 -0.000065
 -5  -3   0   1   8  0.000984  0.000006
 -5  -3   0   1   9  0.000019  0.000008
 -5  -3   0   1  10 -0.000280  0.000051
 -5  -3   0   2   1 -0.000994  0.000061
 -5  -3   0   2   2  0.001024  0.000086
 -5  -3   0   2   3 -0.000523 -0.000011
 -5  -3   0   2   4  0.000303 -0.000413
 -5  -3   0   2   5  0.000610 -0.000018
 -5  -3   0   2   6  0.000429  0.000047
 -5  -3   0   2   7 -0.000803  0.000061
 -5  -3   0   2   8  0.000777  0.000084
 -5  -3   0   2   9  0.000447 -0.000465
 -5  -3   0   2  10 -0.000903 -0.000099
 -5  -3   0   3   1  0.000901  0.000003
 -5  -3   0   3   2 -0.000619 -0.000000
 -5  -3   0   3   3  0.002133  0.000031
 -5  -3   0   3   4 -0.000836 -0.000140
 -5  -3   0   3   5 -0.000048  0.000027
 -5  -3   0   3   6  0.000994 -0.000007
 -5  -3   0   3   7 -0.000765 -0.000033
 -5  -3   0   3   8 -0.000593  0.000023
 -5  -3   0   3   9  0.000388 -0.000319
 -5  -3   0   3  10 -0.000039 -0.000032
 -5  -3   0   4   1 -0.000015 -0.000072
 -5  -3   0   4   2  0.000447  0.000119
 -5  -3   0   4   3  0.001063  0.000244
 -5  -3   0   4   4  0.000939 -0.000142
 -5  -3   0   4   5  0.000425 -0.000069
 -5  -3   0   4   6 -0.000211 -0.000100
 -5  -3   0   4   7  0.000623 -0.000469
 -5  -3   0   4   8  0.000005  0.000191
 -5  -3   0   4   9 -0.000716  0.000176
 -5  -3   0   4  10 -0.000202 -0.000021
 -5  -3   0   5   1 -0.000504  0.000056
 -5  -3   0   5   2 -0.000859 -0.000053
 -5  -3   0   5   3  0.000057 -0.000012
 -5  -3   0   5   4  0.000419 -0.000116
 -5  -3   0   5   5  0.000590 -0.000091
 -5  -3   0   5   6  0.000317 -0.000027
 -5  -3   0   5   7 -0.001213  0.000004
 -5  -3   0   5   8  0.000118  0.000028
 -5  -3   0   5   9 -0.000264 -0.000123
 -5  -3   0   5  10  0.001556  0.000097
 -5  -3   0   6   1  0.000793  0.000011
 -5  -3   0   6   2 -0.000991 -0.000047
 -5  -3   0   6   3 -0.000889  0.000000
 -5  -3   0   6   4  0.000078 -0.000074
 -5  -3   0   6   5  0.000395 -0.000018
 -5  -3   0   6   6  0.000512  0.000001
 -5  -3   0   6   7  0.001019 -0.000055
 -5  -3   0   6   8  0.000856  0.000005
 -5  -3   0   6   9 -0.000094 -0.000085
 -5  -3   0   6  10  0.000607 -0.000036
 -5  -3   0   7   1  0.000977  0.000048
 -5  -3   0   7   2  0.001023  0.000089
 -5  -3   0   7   3 -0.001112 -0.000002
 -5  -3   0   7   4 -0.000349  0.000254
 -5  -3   0   7   5  0.000234  0.000004
 -5  -3   0   7   6 -0.001018  0.000040
 -5  -3   0   7   7  0.001033  0.000117
 -5  -3   0   7   8  0.000663  0.000097
 -5  -3   0   7   9 -0.000110  0.000259
 -5  -3   0   7  10 -0.000537 -0.000043
 -5  -3   0   8   1 -0.000865  0.000005
 -5  -3   0   8   2  0.001101 -0.000091
 -5  -3   0   8   3 -0.000506  0.000040
 -5  -3   0   8   4 -0.000987 -0.000264
 -5  -3   0   8   5 -0.000407  0.000087
 -5  -3   0   8   6 -0.000900  0.000006
 -5  -3   0   8   7  0.000567 -0.000048
 -5  -3   0   8   8  0.002106  0.000004
 -5  -3   0   8   9 -0.001228 -0.000183
 -5  -3   0   8  10 -0.000043  0.000031
 -5  -3   0   9   1 -0.000056 -0.000074
 -5  -3   0   9   2 -0.000254  0.000183
 -5  -3   0   9   3  0.000716  0.000083
 -5  -3   0   9   4  0.001380  0.000044
 -5  -3   0   9   5 -0.000062 -0.000113
 -5  -3   0   9   6 -0.000072 -0.000146
 -5  -3   0   9   7  0.000093 -0.000479
 -5  -3   0   9   8  0.001206  0.000135
 -5  -3   0   9   9  0.000518  0.000029
 -5  -3   0   9  10  0.000500  0.000184
 -5  -3   0  10   1 -0.000438  0.000020
 -5  -3   0  10   2  0.000422 -0.000080
 -5  -3   0  10   3  0.000297 -0.000041
 -5  -3   0  10   4  0.000034  0.000130
 -5  -3   0  10   5 -0.001380  0.000090
 -5  -3   0  10   6  0.000504 -0.000034
 -5  -3   0  10   7  0.000784 -0.000079
 -5  -3   0  10   8  0.000016  0.000063
 -5  -3   0  10   9  0.000487  0.000233
 -5  -3   0  10  10  0.000577 -0.000053
 -5  -3   1   1   1  0.000546  0.000008
 -5  -3   1   1   2 -0.000066  0.000038
 -5  -3   1   1   3 -0.000119  0.000043
 -5  -3   1   1   4  0.000022  0.000015
 -5  -3   1   1   5  0.000333 -0.000080
 -5  -3   1   1   6  0.000251  0.000022
 -5  -3   1   1   7 -0.000075  0.000042
 -5  -3   1   1   8  0.000400  0.000037
 -5  -3   1   1   9 -0.000092 -0.000027
 -5  -3   1   1  10  0.000360  0.000031
 -5  -3   1   2   1 -0.000211 -0.000030
 -5  -3   1   2   2  0.001080  0.000048
 -5  -3   1   2   3 -0.000568 -0.000062
 -5  -3   1   2   4 -0.000527 -0.000161
 -5  -3   1   2   5 -0.000979  0.000051
 -5  -3   1   2   6  0.000089 -0.000031
 -5  -3   1   2   7  0.000983  0.000018
 -5  -3   1   2   8 -0.000738 -0.000024
 -5  -3   1   2   9 -0.000394 -0.000173
 -5  -3   1   2  10  0.000072 -0.000023
 -5  -3   1   3   1 -0.000155  0.000011
 -5  -3   1   3   2  0.000260  0.000062
 -5  -3   1   3   3  0.000268  0.000079
 -5  -3   1   3   4  0.000078  0.000019
 -5  -3   1   3   5  0.000278  0.000110
 -5  -3   1   3   6  0.000399  0.000040
 -5  -3   1   3   7  0.000786  0.000048
 -5  -3   1   3   8 -0.000447 -0.000026
 -5  -3   1   3   9  0.000511  0.000105
 -5  -3   1   3  10 -0.000247  0.000137
 -5  -3   1   4   1  0.000467  0.000116
 -5  -3   1   4   2 -0.000532 -0.000096
 -5  -3   1   4   3 -0.000421 -0.000241
 -5  -3   1   4   4  0.000205 -0.000020
 -5  -3   1   4   5  0.001019  0.000075
 -5  -3   1   4   6  0.000197  0.000023
 -5  -3   1   4   7 -0.000258 -0.000248
 -5  -3   1   4   8 -0.000915  0.000106
 -5  -3   1   4   9  0.000488  0.000001
 -5  -3   1   4  10 -0.000028 -0.000073
 -5  -3   1   5   1 -0.000239 -0.000000
 -5  -3   1   5   2 -0.000348 -0.000069
 -5  -3   1   5   3 -0.000481 -0.000139
 -5  -3   1   5   4  0.000479  0.000185
 -5  -3   1   5   5 -0.000172 -0.000057
 -5  -3   1   5   6 -0.000444 -0.000048
 -5  -3   1   5   7  0.000063 -0.000132
 -5  -3   1   5   8  0.000223 -0.000049
 -5  -3   1   5   9 -0.000020  0.000018
 -5  -3   1   5  10  0.000438  0.000088
 -5  -3   1   6   1  0.000362 -0.000000
 -5  -3   1   6   2 -0.000398  0.000045
 -5  -3   1   6   3 -0.000001  0.000018
 -5  -3   1   6   4 -0.000028  0.000116
 -5  -3   1   6   5  0.000369  0.000009
 -5  -3   1   6   6  0.000562  0.000013
 -5  -3   1   6   7  0.000179  0.000038
 -5  -3   1   6   8 -0.000141 -0.000002
 -5  -3   1   6   9 -0.000374  0.000025
 -5  -3   1   6  10  0.000177  0.000098
 -5  -3   1   7   1  0.000395 -0.000030
 -5  -3   1   7   2  0.000392  0.000043
 -5  -3   1   7   3 -0.001383 -0.000059
 -5  -3   1   7   4  0.000492 -0.000286
 -5  -3   1   7   5 -0.000483  0.000051
 -5  -3   1   7   6  0.000115 -0.000032
 -5  -3   1   7   7  0.001095  0.000067
 -5  -3   1   7   8 -0.000208  0.000005
 -5  -3   1   7   9 -0.000448 -0.000251
 -5  -3   1   7  10 -0.000364  0.000036
 -5  -3   1   8   1 -0.000016  0.000022
 -5  -3   1   8   2  0.001325  0.000046
 -5  -3   1   8   3 -0.000468  0.000081
 -5  -3   1   8   4  0.000850  0.000103
 -5  -3   1   8   5  0.000313 -0.000023
 -5  -3   1   8   6 -0.000132  0.000047
 -5  -3   1   8   7  0.000537  0.000083
 -5  -3   1   8   8  0.000293  0.000092
 -5  -3   1   8   9  0.000051  0.000221
 -5  -3   1   8  10  0.000440  0.000087
 -5  -3   1   9   1 -0.000010  0.000046
 -5  -3   1   9   2  0.000422 -0.000202
 -5  -3   1   9   3 -0.000851 -0.000211
 -5  -3   1   9   4  0.002466  0.000019
 -5  -3   1   9   5  0.000077 -0.000010
 -5  -3   1   9   6  0.000033  0.000066
 -5  -3   1   9   7 -0.000379 -0.000244
 -5  -3   1   9   8 -0.000241  0.000019
 -5  -3   1   9   9 -0.000363 -0.000143
 -5  -3   1   9  10  0.000421  0.000060
 -5  -3   1  10   1 -0.000388 -0.000004
[...]
  5   5  -1   1   2  0.000041  0.000013
  5   5  -1   1   3 -0.000282  0.000034
  5   5  -1   1   4  0.000111 -0.000035
  5   5  -1   1   5  0.000165 -0.000080
  5   5  -1   1   6 -0.000595  0.000013
  5   5  -1   1   7  0.000023  0.000028
  5   5  -1   1   8  0.000151  0.000049
  5   5  -1   1   9 -0.000127 -0.000096
  5   5  -1   1  10  0.000084 -0.000018
  5   5  -1   2   1 -0.000040 -0.000013
  5   5  -1   2   2 -0.000226  0.000116
  5   5  -1   2   3 -0.000053 -0.000080
  5   5  -1   2   4  0.000017  0.000022
  5   5  -1   2   5 -0.000078  0.000097
  5   5  -1   2   6 -0.000003 -0.000024
  5   5  -1   2   7 -0.000004  0.000122
  5   5  -1   2   8 -0.000009 -0.000065
  5   5  -1   2   9 -0.000043  0.000040
  5   5  -1   2  10  0.000605  0.000004
  5   5  -1   3   1 -0.000322  0.000037
  5   5  -1   3   2  0.000058  0.000071
  5   5  -1   3   3  0.000736  0.000028
  5   5  -1   3   4 -0.000232  0.000121
  5   5  -1   3   5 -0.000768 -0.000062
  5   5  -1   3   6  0.000152  0.000056
  5   5  -1   3   7 -0.000047  0.000087
  5   5  -1   3   8 -0.000324  0.000048
  5   5  -1   3   9 -0.000500  0.000162
  5   5  -1   3  10  0.000473  0.000040
  5   5  -1   4   1 -0.000059 -0.000015
  5   5  -1   4   2 -0.000017  0.000224
  5   5  -1   4   3  0.000225  0.000103
  5   5  -1   4   4 -0.000328 -0.000009
  5   5  -1   4   5 -0.000833 -0.000012
  5   5  -1   4   6  0.000198 -0.000030
  5   5  -1   4   7  0.000145  0.000116
  5   5  -1   4   8  0.000375 -0.000186
  5   5  -1   4   9  0.000151  0.000013
  5   5  -1   4  10 -0.000069 -0.000047
  5   5  -1   5   1 -0.000131 -0.000049
  5   5  -1   5   2  0.000003 -0.000059
  5   5  -1   5   3  0.000708 -0.000113
  5   5  -1   5   4 -0.000743 -0.000013
  5   5  -1   5   5 -0.000278 -0.000143
  5   5  -1   5   6 -0.000049  0.000003
  5   5  -1   5   7  0.000510 -0.000087
  5   5  -1   5   8 -0.000525 -0.000152
  5   5  -1   5   9 -0.000124 -0.000232
  5   5  -1   5  10 -0.001095  0.000052
  5   5  -1   6   1 -0.000614  0.000011
  5   5  -1   6   2  0.000021  0.000019
  5   5  -1   6   3  0.000154  0.000047
  5   5  -1   6   4 -0.000193  0.000041
  5   5  -1   6   5  0.000028 -0.000041
  5   5  -1   6   6  0.001698  0.000021
  5   5  -1   6   7  0.000022  0.000038
  5   5  -1   6   8 -0.000323  0.000024
  5   5  -1   6   9  0.000042 -0.000024
  5   5  -1   6  10  0.000071  0.000096
  5   5  -1   7   1 -0.000027 -0.000022
  5   5  -1   7   2  0.000060  0.000128
  5   5  -1   7   3  0.000054 -0.000038
  5   5  -1   7   4  0.000133  0.000323
  5   5  -1   7   5  0.000561  0.000066
  5   5  -1   7   6 -0.000019 -0.000019
  5   5  -1   7   7 -0.000188  0.000128
  5   5  -1   7   8 -0.000071 -0.000057
  5   5  -1   7   9 -0.000170  0.000328
  5   5  -1   7  10  0.000064  0.000044
  5   5  -1   8   1  0.000153  0.000045
  5   5  -1   8   2 -0.000007  0.000015
  5   5  -1   8   3 -0.000237  0.000065
  5   5  -1   8   4 -0.000099 -0.000356
  5   5  -1   8   5  0.000517 -0.000146
  5   5  -1   8   6 -0.000294  0.000034
  5   5  -1   8   7  0.000120  0.000015
  5   5  -1   8   8  0.000780  0.000045
  5   5  -1   8   9 -0.000207 -0.000221
  5   5  -1   8  10 -0.000633 -0.000048
  5   5  -1   9   1  0.000159 -0.000024
  5   5  -1   9   2  0.000103  0.000049
  5   5  -1   9   3  0.000335  0.000141
  5   5  -1   9   4 -0.000439 -0.000047
  5   5  -1   9   5 -0.000037 -0.000176
  5   5  -1   9   6 -0.000040  0.000051
  5   5  -1   9   7  0.000057 -0.000083
  5   5  -1   9   8  0.000304 -0.000107
  5   5  -1   9   9 -0.000783 -0.000065
  5   5  -1   9  10 -0.000697  0.000084
  5   5  -1  10   1 -0.000078 -0.000057
  5   5  -1  10   2  0.000718  0.000154
  5   5  -1  10   3 -0.000509  0.000022
  5   5  -1  10   4  0.000002 -0.000068
  5   5  -1  10   5 -0.001161  0.000047
  5   5  -1  10   6 -0.000106  0.000029
  5   5  -1  10   7  0.000087  0.000140
  5   5  -1  10   8  0.000660 -0.000099
  5   5  -1  10   9 -0.000830  0.000055
  5   5  -1  10  10 -0.000299 -0.000137
  5   5   0   1   1  0.001068 -0.000019
  5   5   0   1   2  0.001229  0.000052
  5   5   0   1   3  0.000004 -0.000009
  5   5   0   1   4 -0.000105  0.000002
  5   5   0   1   5 -0.000032  0.000028
  5   5   0   1   6  0.001003 -0.000021
  5   5   0   1   7 -0.001157  0.000034
  5   5   0   1   8  0.001232 -0.000007
  5   5   0   1   9 -0.000109  0.000007
  5   5   0   1  10  0.001164 -0.000030
  5   5   0   2   1 -0.001255 -0.000045
  5   5   0   2   2 -0.004669 -0.000141
  5   5   0   2   3 -0.000039 -0.000054
  5   5   0   2   4  0.000066 -0.000254
  5   5   0   2   5  0.000117 -0.000057
  5   5   0   2   6  0.001148 -0.000038
  5   5   0   2   7 -0.001598 -0.000108
  5   5   0   2   8  0.002309  0.000039
  5   5   0   2   9  0.002166 -0.000222
  5   5   0   2  10 -0.000896  0.000035
  5   5   0   3   1 -0.000003 -0.000020
  5   5   0   3   2  0.000009  0.000045
  5   5   0   3   3 -0.002697 -0.000036
  5   5   0   3   4  0.003558 -0.000154
  5   5   0   3   5  0.001249 -0.000065
  5   5   0   3   6  0.001218 -0.000014
  5   5   0   3   7 -0.002318  0.000054
  5   5   0   3   8  0.002112 -0.000012
  5   5   0   3   9 -0.001515 -0.000106
  5   5   0   3  10 -0.000250 -0.000110
  5   5   0   4   1 -0.000012  0.000006
  5   5   0   4   2  0.000178  0.000426
  5   5   0   4   3 -0.003386  0.000125
  5   5   0   4   4 -0.001915  0.000082
  5   5   0   4   5  0.000775 -0.000018
  5   5   0   4   6  0.000167  0.000080
  5   5   0   4   7  0.001849 -0.000267
  5   5   0   4   8  0.001456 -0.000182
  5   5   0   4   9  0.000675 -0.000012
  5   5   0   4  10  0.000088  0.000118
  5   5   0   5   1 -0.000134 -0.000025
  5   5   0   5   2  0.000016  0.000008
  5   5   0   5   3 -0.001169  0.000131
  5   5   0   5   4  0.000793 -0.000087
  5   5   0   5   5  0.000823  0.000125
  5   5   0   5   6 -0.001224  0.000035
  5   5   0   5   7 -0.000630  0.000053
  5   5   0   5   8  0.000321  0.000070
  5   5   0   5   9  0.000145  0.000177
  5   5   0   5  10 -0.000649 -0.000125
  5   5   0   6   1  0.001001 -0.000016
  5   5   0   6   2 -0.001165  0.000023
  5   5   0   6   3  0.001221 -0.000018
  5   5   0   6   4 -0.000111 -0.000062
  5   5   0   6   5  0.001305 -0.000032
  5   5   0   6   6  0.001053 -0.000013
  5   5   0   6   7  0.001243  0.000020
  5   5   0   6   8  0.000014 -0.000005
  5   5   0   6   9  0.000049  0.000003
  5   5   0   6  10  0.000046 -0.000005
  5   5   0   7   1  0.001150 -0.000018
  5   5   0   7   2 -0.001598 -0.000129
  5   5   0   7   3  0.002346 -0.000047
  5   5   0   7   4  0.001894  0.000356
  5   5   0   7   5 -0.000533 -0.000074
  5   5   0   7   6 -0.001224 -0.000030
  5   5   0   7   7 -0.004669 -0.000120
  5   5   0   7   8  0.000013  0.000018
  5   5   0   7   9  0.000229  0.000380
  5   5   0   7  10 -0.000185 -0.000043
  5   5   0   8   1  0.001222 -0.000025
  5   5   0   8   2 -0.002344 -0.000022
  5   5   0   8   3  0.002112 -0.000041
  5   5   0   8   4 -0.001780  0.000206
  5   5   0   8   5 -0.000535  0.000002
  5   5   0   8   6  0.000014 -0.000027
  5   5   0   8   7  0.000102 -0.000038
  5   5   0   8   8 -0.002740 -0.000014
  5   5   0   8   9  0.003586  0.000131
  5   5   0   8  10  0.001286 -0.000137
  5   5   0   9   1  0.000026  0.000001
  5   5   0   9   2  0.002148  0.000372
  5   5   0   9   3  0.001868  0.000214
  5   5   0   9   4  0.000735 -0.000173
  5   5   0   9   5  0.000142  0.000107
  5   5   0   9   6  0.000017  0.000019
  5   5   0   9   7 -0.000007 -0.000296
  5   5   0   9   8 -0.003385 -0.000077
  5   5   0   9   9 -0.001784  0.000025
  5   5   0   9  10  0.000849 -0.000158
  5   5   0  10   1 -0.001185  0.000031
  5   5   0  10   2 -0.000798 -0.000000
  5   5   0  10   3  0.000570  0.000052
  5   5   0  10   4  0.000063  0.000010
  5   5   0  10   5 -0.000652 -0.000109
  5   5   0  10   6  0.000122  0.000006
  5   5   0  10   7 -0.000088  0.000063
  5   5   0  10   8 -0.001171  0.000072
  5   5   0  10   9  0.000842 -0.000080
  5   5   0  10  10  0.000843  0.000111
  5   5   1   1   1  0.001678 -0.000009
  5   5   1   1   2  0.000071 -0.000041
  5   5   1   1   3  0.000275 -0.000032
  5   5   1   1   4 -0.000048  0.000033
  5   5   1   1   5 -0.000148  0.000070
  5   5   1   1   6 -0.000912 -0.000004
  5   5   1   1   7  0.000514 -0.000037
  5   5   1   1   8 -0.000270 -0.000046
  5   5   1   1   9 -0.000124  0.000060
  5   5   1   1  10  0.000022  0.000031
  5   5   1   2   1 -0.000058  0.000041
  5   5   1   2   2 -0.000341 -0.000062
  5   5   1   2   3  0.000062  0.000041
  5   5   1   2   4  0.000023 -0.000111
  5   5   1   2   5  0.000014 -0.000056
  5   5   1   2   6 -0.000522  0.000047
  5   5   1   2   7 -0.000549 -0.000066
  5   5   1   2   8  0.000093  0.000102
  5   5   1   2   9  0.000105 -0.000095
  5   5   1   2  10  0.000328 -0.000036
  5   5   1   3   1  0.000328 -0.000024
  5   5   1   3   2 -0.000069 -0.000045
  5   5   1   3   3  0.000707 -0.000039
  5   5   1   3   4 -0.000195 -0.000062
  5   5   1   3   5 -0.000464  0.000072
  5   5   1   3   6 -0.000257 -0.000047
  5   5   1   3   7 -0.000047 -0.000082
  5   5   1   3   8  0.000213 -0.000075
  5   5   1   3   9 -0.000216 -0.000159
  5   5   1   3  10  0.000330  0.000014
  5   5   1   4   1  0.000075 -0.000002
  5   5   1   4   2 -0.000157 -0.000131
  5   5   1   4   3  0.000218 -0.000167
  5   5   1   4   4 -0.000451 -0.000130
  5   5   1   4   5 -0.000723 -0.000042
  5   5   1   4   6  0.000044 -0.000051
  5   5   1   4   7 -0.000099 -0.000450
  5   5   1   4   8  0.000585  0.000364
  5   5   1   4   9 -0.000425  0.000064
  5   5   1   4  10  0.000069  0.000066
  5   5   1   5   1  0.000193  0.000058
  5   5   1   5   2 -0.000015  0.000039
  5   5   1   5   3  0.000494  0.000069
  5   5   1   5   4 -0.000852 -0.000035
  5   5   1   5   5 -0.000162  0.000079
  5   5   1   5   6 -0.000032 -0.000020
  5   5   1   5   7  0.000300  0.000068
  5   5   1   5   8 -0.000317  0.000141
  5   5   1   5   9  0.000203  0.000050
  5   5   1   5  10 -0.000298  0.000005
  5   5   1   6   1 -0.000892 -0.000006
  5   5   1   6   2  0.000522 -0.000034
  5   5   1   6   3 -0.000265 -0.000038
  5   5   1   6   4 -0.000059  0.000008
  5   5   1   6   5  0.000019  0.000060
  5   5   1   6   6  0.001667 -0.000015
  5   5   1   6   7  0.000082 -0.000040
  5   5   1   6   8  0.000312 -0.000022
  5   5   1   6   9 -0.000048  0.000010
  5   5   1   6  10 -0.000093 -0.000097
  5   5   1   7   1 -0.000498  0.000025
  5   5   1   7   2 -0.000620 -0.000060
  5   5   1   7   3  0.000060  0.000033
  5   5   1   7   4 -0.000019  0.000004
  5   5   1   7   5  0.000204 -0.000035
  5   5   1   7   6 -0.000093  0.000027
  5   5   1   7   7 -0.000352 -0.000086
  5   5   1   7   8  0.000137  0.000078
  5   5   1   7   9 -0.000005 -0.000040
  5   5   1   7  10  0.000012 -0.000016
  5   5   1   8   1 -0.000264 -0.000034
  5   5   1   8   2 -0.000119 -0.000050
  5   5   1   8   3  0.000129 -0.000073
  5   5   1   8   4 -0.000309  0.000253
  5   5   1   8   5  0.000397  0.000125
  5   5   1   8   6  0.000288 -0.000019
  5   5   1   8   7 -0.000096 -0.000056
  5   5   1   8   8  0.000737 -0.000067
  5   5   1   8   9 -0.000081  0.000141
  5   5   1   8  10 -0.000602  0.000124
  5   5   1   9   1  0.000151  0.000042
  5   5   1   9   2 -0.000190  0.000053
  5   5   1   9   3  0.000144 -0.000179
  5   5   1   9   4  0.000161  0.000118
  5   5   1   9   5  0.000141  0.000072
  5   5   1   9   6  0.000043 -0.000069
  5   5   1   9   7 -0.000170 -0.000264
  5   5   1   9   8  0.000392  0.000220
  5   5   1   9   9 -0.000537  0.000233
  5   5   1   9  10 -0.001028  0.000044
  5   5   1  10   1 -0.000026  0.000042
  5   5   1  10   2  0.000169 -0.000138
  5   5   1  10   3 -0.000452 -0.000043
  5   5   1  10   4  0.000017  0.000122
  5   5   1  10   5 -0.000228 -0.000001
  5   5   1  10   6  0.000047 -0.000033
  5   5   1  10   7 -0.000051 -0.000177
  5   5   1  10   8  0.000540  0.000057
  5   5   1  10   9 -0.000895  0.000062
  5   5   1  10  10 -0.000157  0.000095
  5   5   2   1   1 -0.000754  0.000022
  5   5   2   1   2  0.000392 -0.000027
  5   5   2   1   3  0.000389  0.000024
  5   5   2   1   4  0.000137 -0.000016
  5   5   2   1   5 -0.000081 -0.000065
  5   5   2   1   6  0.001068  0.000022
  5   5   2   1   7  0.000187 -0.000020
  5   5   2   1   8 -0.000405  0.000026
  5   5   2   1   9  0.000111 -0.000021
  5   5   2   1  10 -0.000132  0.000019
  5   5   2   2   1 -0.000372  0.000019
  5   5   2   2   2  0.000584  0.000143
  5   5   2   2   3  0.000420 -0.000002
  5   5   2   2   4  0.000277  0.000288
  5   5   2   2   5  0.000152  0.000106
  5   5   2   2   6 -0.000184  0.000012
  5   5   2   2   7  0.000286  0.000122
  5   5   2   2   8 -0.000018 -0.000008
  5   5   2   2   9 -0.000074  0.000250
  5   5   2   2  10  0.000374 -0.000029
  5   5   2   3   1  0.000367  0.000033
  5   5   2   3   2 -0.000403  0.000092
  5   5   2   3   3 -0.000758  0.000072
  5   5   2   3   4 -0.000229  0.000460
  5   5   2   3   5  0.000039  0.000048
  5   5   2   3   6 -0.000407  0.000037
  5   5   2   3   7 -0.000033  0.000065
  5   5   2   3   8 -0.000052  0.000029
  5   5   2   3   9  0.000093  0.000398
  5   5   2   3  10 -0.000076  0.000109
  5   5   2   4   1 -0.000046 -0.000005
  5   5   2   4   2  0.000005 -0.000186
  5   5   2   4   3  0.000167 -0.000249
  5   5   2   4   4 -0.000466  0.000096
  5   5   2   4   5 -0.000179  0.000121
  5   5   2   4   6 -0.000157 -0.000021
  5   5   2   4   7  0.000073 -0.000031
  5   5   2   4   8 -0.000211 -0.000131
  5   5   2   4   9  0.000029  0.000061
  5   5   2   4  10 -0.000108 -0.000259
  5   5   2   5   1  0.000223  0.000006
  5   5   2   5   2  0.000263 -0.000030
  5   5   2   5   3 -0.000126 -0.000179
  5   5   2   5   4 -0.000158  0.000135
  5   5   2   5   5 -0.000229 -0.000151
  5   5   2   5   6  0.000200 -0.000021
  5   5   2   5   7  0.000122 -0.000069
  5   5   2   5   8 -0.000034 -0.000160
  5   5   2   5   9 -0.000209 -0.000162
  5   5   2   5  10 -0.000008  0.000124
  5   5   2   6   1  0.001061  0.000017
  5   5   2   6   2  0.000189 -0.000002
  5   5   2   6   3 -0.000398  0.000036
  5   5   2   6   4  0.000083  0.000042
  5   5   2   6   5 -0.000281 -0.000003
  5   5   2   6   6 -0.000734  0.000019
  5   5   2   6   7  0.000375 -0.000010
  5   5   2   6   8  0.000363  0.000014
  5   5   2   6   9 -0.000009 -0.000004
  5   5   2   6  10 -0.000176  0.000053
  5   5   2   7   1 -0.000191  0.000013
  5   5   2   7   2  0.000304  0.000149
  5   5   2   7   3 -0.000021  0.000011
  5   5   2   7   4  0.000021 -0.000028
  5   5   2   7   5  0.000061  0.000097
  5   5   2   7   6 -0.000384  0.000025
  5   5   2   7   7  0.000608  0.000128
  5   5   2   7   8  0.000369 -0.000029
  5   5   2   7   9 -0.000060 -0.000035
  5   5   2   7  10  0.000454  0.000040
  5   5   2   8   1 -0.000401  0.000043
  5   5   2   8   2  0.000084 -0.000067
  5   5   2   8   3 -0.000010  0.000065
  5   5   2   8   4  0.000368  0.000304
  5   5   2   8   5  0.000186 -0.000011
  5   5   2   8   6  0.000372  0.000040
  5   5   2   8   7 -0.000370 -0.000055
  5   5   2   8   8 -0.000754  0.000073
  5   5   2   8   9 -0.000258  0.000431
  5   5   2   8  10  0.000049  0.000054
  5   5   2   9   1 -0.000057 -0.000052
  5   5   2   9   2 -0.000108 -0.000235
  5   5   2   9   3 -0.000331 -0.000281
  5   5   2   9   4  0.000045  0.000044
  5   5   2   9   5 -0.000170 -0.000076
  5   5   2   9   6 -0.000057  0.000020
  5   5   2   9   7  0.000180 -0.000039
  5   5   2   9   8  0.000078 -0.000264
  5   5   2   9   9 -0.000197 -0.000241
  5   5   2   9  10 -0.000137  0.000056
  5   5   2  10   1  0.000165 -0.000053
  5   5   2  10   2  0.000345  0.000056
  5   5   2  10   3 -0.000197 -0.000016
  5   5   2  10   4 -0.000022 -0.000067
  5   5   2  10   5 -0.000036  0.000112
  5   5   2  10   6  0.000039  0.000008
  5   5   2  10   7  0.000378  0.000010
  5   5   2  10   8 -0.000131 -0.000070
  5   5   2  10   9 -0.000169  0.000043
  5   5   2  10  10 -0.000248 -0.000161
  5   5   3   1   1  0.000329  0.000000
  5   5   3   1   2  0.000003  0.000051
  5   5   3   1   3  0.000017  0.000013
  5   5   3   1   4 -0.000023 -0.000032
  5   5   3   1   5  0.000141 -0.000030
  5   5   3   1   6  0.000138 -0.000004
  5   5   3   1   7 -0.000092  0.000050
  5   5   3   1   8  0.000094  0.000029
  5   5   3   1   9 -0.000003 -0.000068
  5   5   3   1  10 -0.000148 -0.000042
  5   5   3   2   1 -0.000022 -0.000041
  5   5   3   2   2  0.000413 -0.000041
  5   5   3   2   3 -0.000089 -0.000113
  5   5   3   2   4  0.000078  0.000128
  5   5   3   2   5  0.000060  0.000020
  5   5   3   2   6  0.000109 -0.000046
  5   5   3   2   7  0.000608 -0.000031
  5   5   3   2   8  0.000102 -0.000008
  5   5   3   2   9  0.000350  0.000151
  5   5   3   2  10 -0.000280  0.000033
  5   5   3   3   1 -0.000021  0.000004
  5   5   3   3   2  0.000078  0.000023
  5   5   3   3   3 -0.000472  0.000047
  5   5   3   3   4  0.000262 -0.000044
  5   5   3   3   5 -0.000310 -0.000119
  5   5   3   3   6  0.000089  0.000024
  5   5   3   3   7 -0.000014  0.000039
  5   5   3   3   8 -0.000539  0.000002
  5   5   3   3   9  0.000091  0.000055
  5   5   3   3  10  0.000007 -0.000048
  5   5   3   4   1 -0.000023 -0.000002
  5   5   3   4   2 -0.000116 -0.000036
  5   5   3   4   3  0.000056 -0.000150
  5   5   3   4   4  0.000422  0.000111
  5   5   3   4   5 -0.000225 -0.000034
  5   5   3   4   6  0.000109  0.000023
  5   5   3   4   7  0.000220  0.000103
  5   5   3   4   8 -0.000048 -0.000158
  5   5   3   4   9 -0.000666 -0.000126
  5   5   3   4  10  0.000024  0.000046
  5   5   3   5   1 -0.000244 -0.000073
  5   5   3   5   2  0.000041 -0.000034
  5   5   3   5   3  0.000321  0.000010
  5   5   3   5   4 -0.000110 -0.000058
  5   5   3   5   5  0.000177 -0.000018
  5   5   3   5   6  0.000125  0.000021
  5   5   3   5   7 -0.000137 -0.000039
  5   5   3   5   8  0.000033 -0.000059
  5   5   3   5   9 -0.000035 -0.000030
  5   5   3   5  10  0.000124 -0.000057
  5   5   3   6   1  0.000121 -0.000001
  5   5   3   6   2 -0.000099  0.000032
  5   5   3   6   3  0.000090  0.000015
  5   5   3   6   4 -0.000046 -0.000027
  5   5   3   6   5 -0.000076 -0.000042
  5   5   3   6   6  0.000331  0.000008
  5   5   3   6   7 -0.000003  0.000045
  5   5   3   6   8 -0.000010  0.000011
  5   5   3   6   9  0.000043 -0.000019
  5   5   3   6  10  0.000123  0.000065
  5   5   3   7   1  0.000083 -0.000034
  5   5   3   7   2  0.000634 -0.000046
  5   5   3   7   3  0.000045 -0.000109
  5   5   3   7   4  0.000044 -0.000141
  5   5   3   7   5 -0.000017 -0.000030
  5   5   3   7   6  0.000017 -0.000042
  5   5   3   7   7  0.000425 -0.000027
  5   5   3   7   8  0.000011  0.000005
  5   5   3   7   9 -0.000138 -0.000070
  5   5   3   7  10 -0.000067  0.000015
  5   5   3   8   1  0.000088  0.000010
  5   5   3   8   2 -0.000143  0.000086
  5   5   3   8   3 -0.000450 -0.000033
  5   5   3   8   4 -0.000019 -0.000178
  5   5   3   8   5 -0.000195 -0.000149
  5   5   3   8   6  0.000012 -0.000003
  5   5   3   8   7 -0.000008  0.000078
  5   5   3   8   8 -0.000469  0.000057
  5   5   3   8   9 -0.000015 -0.000158
  5   5   3   8  10 -0.000158 -0.000131
  5   5   3   9   1 -0.000025  0.000004
  5   5   3   9   2  0.000153 -0.000217
  5   5   3   9   3  0.000286 -0.000034
  5   5   3   9   4 -0.000496 -0.000003
  5   5   3   9   5  0.000058 -0.000056
  5   5   3   9   6  0.000010  0.000053
  5   5   3   9   7  0.000046 -0.000035
  5   5   3   9   8  0.000054 -0.000073
  5   5   3   9   9  0.000613 -0.000116
  5   5   3   9  10 -0.000026 -0.000069
  5   5   3  10   1  0.000134 -0.000008
  5   5   3  10   2 -0.000105  0.000127
  5   5   3  10   3  0.000229  0.000053
  5   5   3  10   4  0.000025 -0.000091
  5   5   3  10   5  0.000068 -0.000049
  5   5   3  10   6 -0.000019  0.000037
  5   5   3  10   7  0.000022  0.000165
  5   5   3  10   8  0.000269 -0.000043
  5   5   3  10   9 -0.000098 -0.000049
  5   5   3  10  10  0.000176 -0.000021
